20.888787160964814 0.0 0.0 0.0 21.105967881077365 0.0 0.0 0.0 21.282018579269977
21.057197278346123 0.0 0.0 0.0 20.936328965968418 0.0 0.0 0.0 21.475561673872303
20.854076311160075 0.0 0.0 0.0 20.99555036485498 0.0 0.0 0.0 21.187678969909705
20.814974878057622 0.0 0.0 0.0 20.933911644510843 0.0 0.0 0.0 21.484821584608394
21.06399879300509 0.0 0.0 0.0 21.11255131022297 0.0 0.0 0.0 21.43603113968715
20.841126815694455 0.0 0.0 0.0 21.141885116771743 0.0 0.0 0.0 21.437870799808234
20.966026395473307 0.0 0.0 0.0 21.143482842884595 0.0 0.0 0.0 21.404761463824983
20.828750948322693 0.0 0.0 0.0 20.895111348844047 0.0 0.0 0.0 21.44359484756623
21.1168630669424 0.0 0.0 0.0 20.942606712913992 0.0 0.0 0.0 21.182240874997653
20.89432394209582 0.0 0.0 0.0 20.994637591341824 0.0 0.0 0.0 21.1210482511915
21.18594238889808 0.0 0.0 0.0 20.93567285145803 0.0 0.0 0.0 21.385789383452558
21.206297190217402 0.0 0.0 0.0 20.927519207354806 0.0 0.0 0.0 21.459224696805126
20.880505008476874 0.0 0.0 0.0 21.200561389246808 0.0 0.0 0.0 21.236496738366398
21.1344735552592 0.0 0.0 0.0 20.813546574322586 0.0 0.0 0.0 21.303232326597943
20.905445659483785 0.0 0.0 0.0 21.082828365904508 0.0 0.0 0.0 21.146025528133126
21.05604473038633 0.0 0.0 0.0 20.895787173943358 0.0 0.0 0.0 21.342091098048627
20.935092283404586 0.0 0.0 0.0 20.9425242411652 0.0 0.0 0.0 21.21164485246836
20.810150369449065 0.0 0.0 0.0 20.96037884496612 0.0 0.0 0.0 21.44642071699497
21.043266159159007 0.0 0.0 0.0 21.07089596762598 0.0 0.0 0.0 21.1514706337494
21.13604679909963 0.0 0.0 0.0 21.117489350010022 0.0 0.0 0.0 21.422588185555025
20.863366017052723 0.0 0.0 0.0 21.292754953049684 0.0 0.0 0.0 21.70841579420743
20.76029499711845 0.0 0.0 0.0 20.72622735302818 0.0 0.0 0.0 21.46936287274503
20.600333193868508 0.0 0.0 0.0 20.602393227187896 0.0 0.0 0.0 21.63624154885538
21.3260748637966 0.0 0.0 0.0 21.09426043002713 0.0 0.0 0.0 21.107802487565642
21.234335644602012 0.0 0.0 0.0 21.00717072187606 0.0 0.0 0.0 21.000099688106406
21.181879366292343 0.0 0.0 0.0 20.949471785885383 0.0 0.0 0.0 21.449173502015583
21.373150997428937 0.0 0.0 0.0 21.236768920914344 0.0 0.0 0.0 21.015791912751926
21.10188047264229 0.0 0.0 0.0 20.96976159900308 0.0 0.0 0.0 21.024668691992893
21.107834774590682 0.0 0.0 0.0 20.663092695890054 0.0 0.0 0.0 21.470340729009504
20.686046672191576 0.0 0.0 0.0 21.02145023293449 0.0 0.0 0.0 21.057257779724058
21.293270110296348 0.0 0.0 0.0 20.60522067322234 0.0 0.0 0.0 21.704187636884846
20.806211174310082 0.0 0.0 0.0 20.793831478661367 0.0 0.0 0.0 21.491567770391857
21.42750649273939 0.0 0.0 0.0 20.911210723796835 0.0 0.0 0.0 21.526715847800773
20.9701116435218 0.0 0.0 0.0 21.117154066366176 0.0 0.0 0.0 21.500445766986466
20.850215963425136 0.0 0.0 0.0 21.304667270563947 0.0 0.0 0.0 21.429414112673122
21.250934346096436 0.0 0.0 0.0 21.335874330677782 0.0 0.0 0.0 21.710188288249928
21.421289189718443 0.0 0.0 0.0 21.19640849580478 0.0 0.0 0.0 21.31028406913732
20.950218284728162 0.0 0.0 0.0 20.726092849518142 0.0 0.0 0.0 21.447325064188192
21.435694451684245 0.0 0.0 0.0 21.343392351375293 0.0 0.0 0.0 21.717681012196152
20.67242988426622 0.0 0.0 0.0 21.030248973132984 0.0 0.0 0.0 21.571990670680062
20.817728187072685 0.0 0.0 0.0 20.64585702316021 0.0 0.0 0.0 21.39793908937459
20.42963491423828 0.0 0.0 0.0 21.202528862313745 0.0 0.0 0.0 21.18158848652665
20.7301064957363 0.0 0.0 0.0 20.517768014900476 0.0 0.0 0.0 20.94885057947931
21.608441176288007 0.0 0.0 0.0 20.728286150295446 0.0 0.0 0.0 21.775150299963066
21.435833096112834 0.0 0.0 0.0 20.791622004075354 0.0 0.0 0.0 21.271613178763513
20.416799191872457 0.0 0.0 0.0 21.267934716583234 0.0 0.0 0.0 21.881357448303046
20.595446242349364 0.0 0.0 0.0 21.17119194205424 0.0 0.0 0.0 21.897778690038084
21.1035791314811 0.0 0.0 0.0 20.635100778341354 0.0 0.0 0.0 21.456156628030758
21.341313050688345 0.0 0.0 0.0 20.522148090550726 0.0 0.0 0.0 21.303859046284387
21.515640427613462 0.0 0.0 0.0 21.640108407487205 0.0 0.0 0.0 21.624617146379325
