-1.534333638940768 -1.034312474032605 14.12222384730943 -0.5747215566744893 -1.4755379697188002 14.290253251232233 -2.0269622620726655 -1.426257143048652 14.89541812631511 21.12696528993157 5.280691660928053 21.459627580984797 1.4900494101595225 14.423707534646203 10.124851536644979 6.607793909081038 3.6138061341786667 17.92422750941481 14.5670798142042 23.342797698877526 11.924029930242188 17.68598462520786 18.472723193808708 16.900135918940066 -0.9958457724756882 15.415674259346101 14.958880350588839 -0.9094873485948275 15.906934666918955 14.049940288217627 10.138099205462463 5.879589899862642 20.25079973461591 17.666094322073185 13.500354209133926 13.73219676895476 17.079294868662227 14.28058383165542 13.71938149803151 19.13311802214518 7.66054282666191 2.430546163294802 13.986024777262509 24.058859056119253 12.36472276185578 6.143630436213387 3.3884766981946233 18.720002567341492 5.9594205777557026 3.202451604132651 17.321398000736526 4.401695674952086 -5.741216307072264 13.042453194657135 3.6915625555066427 14.64353486409205 13.197491861844531 4.142478359556809 -5.310134406431433 12.160772999530982 -1.5766146330332769 21.731361457646923 19.7454519289817 -2.127151151932801 21.56509506736051 18.97623069729404 21.97558480161806 4.897167262016591 7.83859049290711 11.069551113757045 7.611604576101202 16.938356132808483 7.340267586395132 6.275102373725783 14.604178300202076 10.678594484373711 8.470983902054307 16.599379161396495 2.199413822237443 -0.9987973581015326 5.174674799450009 15.130444137299273 15.74464967946542 13.994399092035339 2.548605410571143 -1.0500605306732562 6.117444252628402 15.044317578955901 5.970249325019946 17.82347462230133 14.181006983259103 5.576232488317531 17.99307695189735 24.10463056654636 12.653025624493983 5.621239469134546 2.3202220339041664 4.004881829648818 7.745656278827977 24.766115789572634 13.001490283034483 5.023690645850555 5.291789873546674 13.912310336250178 3.1864779485906616 2.309359864580465 14.471077037291124 9.527196180546467 1.9403594393820216 14.871673841949242 8.659822715746861 7.077263133887574 2.2195213687585875 4.434601781366754 7.372787250247323 1.2987937637924447 25.908279160596017 12.327122944966042 3.9244620879578194 9.757921190254189 2.1483428265075997 9.005937385731752 8.474902638525704 2.0808845772499804 5.002125061985574 19.605893941959295 2.5629643628655905 5.52089600224942 19.031301895765203 18.94662710812952 1.6060803562025339 7.6246893123788295 19.38358293572001 10.172655526062847 11.212662283475533 19.254279254314923 9.792036757445477 10.27058216027345 20.33182525113458 9.800375561280132 11.526879775465629 6.934122719867061 3.067821282001517 13.321399969525942 14.542167846636035 3.7022179258374504 12.550495101593103 7.532644960632755 3.864323269721402 13.453302216053853 9.278755390447532 24.80390778330425 18.088141822266902 9.884549018023955 24.0404894566899 18.352871688593957 8.347464325814089 24.541381684022674 18.12875798002268 10.960856309764965 3.991226829481695 15.62487128500573 20.169533997044894 19.840840575552246 8.828850603695955 10.340653596804907 3.435608068665908 16.189833600318618 7.6192101835065085 20.674046251192664 5.057302793271263 13.038638902121543 2.4392379876324797 13.45083316141143 22.978607961362254 19.86710404764973 20.331666496352153 24.586286309782604 6.2936829499054605 9.409834618761304 24.122807989133833 7.136984176380772 9.175993002009166 25.27059671053966 6.009607977788637 8.759581296591481 -1.956583760369943 -1.331401160550711 7.273977020339811 -1.385271253760123 -1.6276104291293403 6.502706598631656 18.277354545249636 -2.116976223706695 7.38415492822032 2.5268685386514433 5.514758876581529 15.52282955972442 6.531842278963769 18.96698740897531 2.6665664805478277 3.2108488965713593 5.561282383346429 14.8431961584127 -5.935910247806037 8.724928887570156 19.249242967730414 16.656975814235423 4.9236061999262235 12.388364691164558 -6.892079857948188 8.52119845751055 19.31083773443195 4.778291263162257 -3.7074986112317423 15.094051692307442 4.931335051175781 18.27502962323862 14.703907636744669 -1.894188953120141 23.210617631480375 14.927532547696378 14.932487368010959 15.897012493017495 18.54009579903897 22.043508870829367 9.711527193969685 21.574463688402197 15.435286741611533 16.7339280172577 18.34020263918083 8.370843056404642 6.02435963928171 4.255279899104735 8.518800424744471 5.998108700456525 3.2950411532236275 7.379408995777349 6.133915061304823 4.240196105895802 2.7905372545907214 9.032814988171765 18.734735428926122 2.4551698656001477 9.222180199300775 17.81896891091071 12.004401627722716 15.283930767600612 -5.198880726012134 8.25297180821275 20.051959369630687 16.61167430151944 7.0875466838069165 17.618967129359334 9.00636560586855 7.842507140499791 19.111945147478824 16.727638403443535 9.720870748466783 20.503744147226747 -2.170466140989778 2.8940077729138447 5.5798775816771204 3.1864821263480936 8.837310562496148 20.461331553775125 -1.7250712433862536 8.131935908765971 4.674810300445553 8.298705718822966 8.369217908763519 4.167515659847942 7.492425689833033 7.829742002665725 4.012560547809189 8.996013122951577 15.748039929621644 4.862289254093929 12.970894476479817 16.279413075179697 1.8439472422405885 4.526061247072322 13.066962008633094 19.225371261762863 16.603494252467204 12.261475753555278 19.708307487652075 16.663850314090098 13.880640846035442 19.717991529379898 16.164217680623125 21.997033408274937 11.227338745334826 13.760753829882516 16.84609662655465 1.1236329279328905 8.318900998250188 21.963170595408297 10.924033555757617 14.684963595668393 0.18389026001412154 17.107973084555518 19.21606739596137 0.3244801531222791 16.76483088898363 18.303346463114025 0.7709821564453342 17.909753668790977 19.468650432554323 5.36479409579553 23.30296278176157 15.768059743236714 12.818042865308174 0.4406823872200103 4.731730156580466 5.543013050095449 2.11313686462651 14.76172779960622 11.626558978919036 6.199593585896328 14.451253578275368 11.808936890742705 5.334545043107736 14.793831776593908 10.878301734026115 6.144687408843731 13.865899628935948 22.77143088142109 18.923628553465296 20.63602030304484 11.2769475259634 13.82978291593464 15.789015374516593 1.542584709869349 18.990737959977327 21.53582152103313 7.7036134169091035 -2.88434044221575 11.8204988344363 7.553819924177825 -3.819247355906756 11.999171075417612 8.655291937811649 -2.6584595422506574 12.07825393473031 19.32467655592609 13.911602206365423 6.791980789872844 20.280687411285818 0.31474388942655346 10.147029161973776 15.222582488587573 5.710023081204795 13.113239027709495 -0.8300493799003944 4.410333188443145 17.247913336382968 -1.274851035948547 5.043666593012586 17.868571424903134 -0.44744617650273066 5.0245324639731415 16.536023469937287 18.151288625854498 5.0435517046832 8.872646034857635 18.120149710833648 5.108254722914289 9.884519773721932 18.879981432692457 4.3812998631681195 8.756094958014316 -2.2167389823087467 13.918629194366373 8.652948215892188 10.922291430908391 1.8669457969048107 19.098269258524542 12.970591589065984 15.810714646619402 10.153051399312282 10.86058177587747 2.3658201673978367 20.01646932024421 2.1146157907575063 10.530378095073086 9.178804632761032 1.2682084016313602 10.823742310840391 8.738794864487605 2.7636032524253737 11.222810056278329 8.829343579072955 14.169921303912778 18.33988304073727 4.193029224486344 7.0388799874793015 20.518848829222843 5.834530697077726 14.153732493863028 18.788513611472027 5.174200623981454 11.583546877275893 20.735189820091524 9.759337450023702 11.97233525055192 20.364731357549243 10.6432819896781 12.27125797258276 20.874735273841633 9.096667832765402 19.68982717765077 6.523668496547684 13.082277667379513 20.483887266151537 6.5766696162112 12.392151828276843 14.438137508816999 21.659859139194943 8.220738320744665 -1.9500288589588322 1.9675482847507333 11.23582377067961 12.348640484620553 8.07092602810494 19.34225655920076 11.885755405527155 7.707440242716992 18.58683237143291 12.15359352338376 7.52357713812618 20.08845208080089 3.5571327657322533 18.48151319544604 3.273318903454941 4.500140351084281 18.799392491825458 3.3181545962172354 19.821961289716167 5.90217903429851 20.139896985820915 18.703429403607984 19.82319581703738 3.3666834265495886 19.468660876947904 19.45032887733544 3.926979186810716 12.351326782649451 5.850251598295068 5.587982431095575 12.321641727215006 6.054420692885055 8.514793955366999 12.405681495721 5.76010812618064 7.532385939671959 11.351800405876002 6.254178075626645 8.649651965278187 4.647855409493044 5.512924841068795 13.650145612986492 26.25969122700493 6.148608234193844 13.970391608951243 25.94547373501483 4.655185284907826 13.820875937089204 6.160140933585413 16.219585499871982 4.671733382096742 17.012350483568767 13.66962440701409 17.444107092034898 6.6372094991611075 16.481188314761038 3.82436093100376 12.063943026646331 15.169155237665974 6.086643735959559 12.701270367320948 15.134983270749354 5.357802618732754 9.190028178102619 0.7403926165268173 13.56302265949554 15.382174911376062 -0.23766844256002548 21.82020355832122 14.76789208069742 -0.9119731142669824 0.8390315583796092 0.2604142428996001 17.266493912562648 1.9976490270496836 14.078718770289289 19.281447210896474 19.070846458739627 13.1521193272522 19.232508960335764 19.516483666274215 1.2398706729687954 22.524916037498393 18.901446750379066 11.591812570355488 19.112139413199422 12.389860328325284 8.955988117872453 16.177636637495333 14.583452445580965 8.372814957912636 15.50980331205084 14.11518223715747 9.745630227888675 15.678910577391147 14.911228849317247 7.0485807402368525 20.322584051694566 19.6453194388469 6.874679498243104 19.357835416665406 19.335072905296105 6.375761261297041 20.857376691710872 19.084733324444237 18.024382977215488 8.615400620970354 12.972243892130416 17.680597406999045 9.031097929867133 13.789651378040993 -0.3352754783270657 9.260757611429645 20.20094237742012 4.865073729422484 4.168748098290439 7.548096396495721 6.499205637903478 20.22685282901458 13.496182718337884 -2.0124591771468077 21.21028230640179 20.479429598971386 1.8634552805702134 14.995667593658014 6.684125715124635 1.2175259373427112 15.459718267074996 6.104083784360248 2.6274877375270944 15.603894764938689 6.764829544321024 7.358413675801863 18.483315897778034 9.3296091427909 -2.525044947532291 2.3491822484241283 4.507190316751107 12.432026434088408 18.005328225567254 7.054588355424346 6.233819863659568 20.099345583305336 7.381894761449503 -0.1694247749051534 3.7333756407667456 21.704061901706257 6.792360965799174 19.636529437209564 8.027078374975359 0.4205560407904207 14.451170023126725 11.313034994662685 1.0171836685606137 13.992024036935138 11.924284773445551 -0.39394790370478366 13.942229346100829 11.360772139961636 10.17092593448592 -1.969444986624949 5.066096972666029 9.26466172575003 -1.6823306959762037 5.300391876099559 1.1956010663385626 18.340666370255807 14.076797001870482 15.364958372997995 1.9008253208011796 23.27182804449815 15.294749070471276 2.0304381562562503 24.248502088117505 14.743247489604915 2.522592603919594 22.84974503336626 23.406890764523514 8.51787505147324 5.218766851389373 23.043803954970343 9.265762564833413 4.830638563787634 23.143715023961235 7.683413959724451 4.785999225624652 20.819567986949526 16.014549520614814 4.884255902672399 3.556483124451547 15.763286655370434 20.262911053411838 -3.842977018121612 11.674415190304808 6.888403431407858 -0.978129992084474 2.8544444100309776 8.297095193332854 15.321718583574798 20.99578161768199 15.421021788859308 -0.8150992749292918 2.4129118491735158 9.20372077808663 15.682618337112219 1.2736144197486179 11.350992009812874 15.707104173422302 1.2693635515613615 10.367286800435137 7.790765614702081 21.463283118737966 14.46298263226625 7.337121735048691 22.32372150620013 14.452051529944917 7.864626277224536 21.0579696259389 15.365729169244233 2.000491990982291 5.985899204360941 3.1096594338062133 1.5194169560291229 5.37439458237471 3.687591597067343 0.20109217624117606 15.750759649710002 1.4556643776138583 12.60376359773228 16.09749053891614 11.055808380683848 12.434526821911577 17.133025006997663 11.150087832656146 10.086380657330631 13.245368962017462 8.931491837168789 16.790595119067966 17.690523758657935 4.262545019279319 17.299337352615833 18.506030364936866 3.999849720821741 15.836175989289904 17.893213927116925 4.205201120765038 5.756308455796061 0.26916037808389603 21.877643545256444 4.766908963038246 0.24341912566543905 21.619412180615164 6.209634825884604 -0.061701299516057864 21.009658038993024 10.403952888538779 5.839663072083176 21.22693066976908 9.620182616593501 5.810268370790266 21.81662948683798 10.03713325271994 13.741158058646814 5.630789822624539 9.983710179555771 12.998526164136342 6.273161805398529 10.793259303736397 14.382149292589466 5.958639337115883 -2.575512257313182 17.622622667112505 20.44923485713021 -1.7517671133779666 17.524240657341792 -1.4088045613756661 10.155948674091508 16.63930807805468 9.567889626814743 23.41062359078918 2.659355671219863 15.394559873283798 23.224072099290755 1.8461134094691807 14.831657192384982 15.884218110881408 25.475100025724224 14.466778124893397 11.213982454824105 3.1595042577297074 5.235883123589068 11.604924462056426 2.3210450521183086 5.478190965777544 10.299970594930214 3.1932292046010855 5.640450886686486 10.121962617380618 2.1249056073129973 2.633367931112906 10.518258420762296 2.6419908224529527 3.352819538510856 5.892158683097396 19.68539039925778 12.946329262778523 7.6536996599879785 7.051062328151575 1.6879644018735158 6.495610677633076 19.1240627329109 12.436114369735808 16.56256476290401 -3.0808537963112426 -2.5871682005490007 15.969381696136661 -2.3281388842381725 -2.397844766994312 5.986060048022081 4.52882901137115 22.23156226612467 5.827927751456145 4.404799748724206 21.29495082740133 11.729244078844907 16.16004618982708 6.138717393473128 12.315857622050133 19.294577902505857 11.87198760590936 19.620497293063526 8.79458463723711 17.97295687210391 13.0901402068669 24.74010924955723 -2.6536718322333637 13.476649613463664 23.089218267136996 18.20748781883236 13.756613672267212 23.020759444974367 17.23771334161227 14.19224097299427 22.63728309027337 18.678375392287123 0.40762797041649956 6.430168196336489 8.27138527409514 -0.46213308275560505 6.647457538142278 7.852103449321539 1.0935635188146817 7.200795243400087 8.116967003886423 17.64179230709012 12.390871345623873 5.085613366510519 2.501893904721794 12.649597774520869 17.88432992593737 15.370773811343605 0.5692278056511556 22.44414118642566 1.1405361345035432 21.559910470387155 19.349005726332468 17.84377643454307 11.698314051695666 4.392042966405004 3.595296579875336 17.52948583179791 3.2474940958878395 4.002795039811438 6.528529317320041 17.98512041286774 3.627308646199514 6.274507043291695 17.187751540480672 5.05069566989225 6.510742515052479 17.79560271359245 2.9397291502517646 4.959075360525542 11.615868097650056 24.21132422472842 5.392693159927714 10.753079721632279 3.5616238549718604 5.159747672144783 12.362934681674801 -3.358083512875419 16.4952506462778 16.072958747274303 20.009482020938865 13.274013755851293 7.0179912003183365 4.967355675756148 16.348991536334157 9.332491795419115 13.347362643088305 19.794049692311688 23.312114159416787 12.763727840932232 19.043162549115202 22.962573728337496 12.730738179368922 20.247388595672525 23.958925009462483 16.146698254831225 15.97387069649755 13.782206614296827 15.938627134799571 2.2897411156788867 8.278961637198421 16.461859920000997 16.39285381161475 14.618806717850898 15.195420798642173 7.910376898864481 11.639706381558147 16.07341621171313 7.79933837295294 12.05075802419033 15.078431057268471 7.251498596475897 10.91408422643285 1.211071302109973 10.23420433743263 -4.931013363853502 0.4672529244887575 9.454707911340487 -4.7415792197268605 0.8368988132104749 10.999556965738085 -4.409366037597592 17.045060235384124 14.41908066829005 18.133359779834244 16.142702229847334 14.855388943478555 18.086011165976483 2.7104705334027432 13.238517439828666 12.742667765716547 3.235224022309489 12.783204546081118 12.027586092592673 18.604475041069062 20.726894882709903 3.6443016745549595 11.581794308033087 14.650678829301098 15.414836618980946 0.4325336713485179 3.500787351244267 17.907823544857305 20.878645654798166 16.123415612661613 3.8824839812791443 18.24199191746484 7.812755240946428 2.7207519944433702 9.833269134422505 18.098719904085215 24.922973870121748 22.285902357045206 3.985620279007692 7.526056637162187 10.707019945942355 4.158238949469758 21.298886274902454 11.859853309447557 1.74408630633888 18.794477360206482 4.193008335699183 3.345953394171047 7.483911420186224 4.4698557874583145 2.5911809365626217 8.002256229191985 0.5004201407429374 19.420973864738137 5.228595025748606 -3.8145327566445264 11.561381785219396 7.8521619379255885 14.020622875437214 18.821275585255282 3.3628378008332556 -3.399884064863226 12.363034947853174 8.374291795164917 15.977929387842927 1.3743923734066925 8.748270018343819 10.604412134528976 -2.3838534573538976 5.855697305107932 16.943914639072016 17.661916564640993 6.206014799069608 14.383974972587332 5.904723288574716 2.265752432503235 14.683626713290089 5.49195040988047 3.165056497357092 12.406289359427383 26.077227671153896 -3.275539381530151 17.540147468764868 6.892685632775856 4.5386112303986295 2.5019774598704374 0.698688152959951 13.480873326227613 1.8755833103958695 1.3397169867194911 13.0078906074206 1.8627011953537025 -0.10784671923334523 13.557982195153597 21.02350312712331 6.715521562227565 15.828225716896439 21.158870823441227 1.474687796081349 10.673681441633454 22.010832541073473 6.507469242104356 15.606152842830792 8.039367248462156 6.14374114678534 1.5578147245884086 7.309070182770232 5.544226688629501 1.1981829204316579 9.441562597580091 13.344860166386422 9.604931713087282 9.65141344227786 14.335815873787729 9.90603313561901 13.707669155070354 6.528502161896731 9.130248647005368 12.496010878041158 2.1643394597154666 14.242507750418413 14.139624207014514 15.981438704085969 18.052470040432123 11.700764306429647 1.64904232475649 13.98761859172289 12.037903064571472 3.831394185640857 10.694213030533966 2.2849387835105808 4.579810185316201 15.636370562337842 12.8291807666224 3.385959599341727 11.168668408835824 9.000224302443227 13.940102867567843 0.9467090784369506 0.1700368163689697 21.381666449542642 19.536518102040297 8.118324775051887 14.328855729905694 0.805444477503494 13.50227388867402 15.638392596935024 4.050319119481348 13.584001268441295 16.718913157046398 4.272467193180777 14.428087913313858 15.395621023671575 4.046425449554545 5.660825809683291 7.266707722407796 26.046239155400606 14.723710206973266 22.79991065383635 15.820267088988112 19.777215418738663 14.702501821368736 20.888998137715138 13.898082983314845 22.981486436233038 15.2162009641099 2.1110584303039936 22.75515016070783 4.058300725055553 2.035892218583978 0.8314614619124756 4.563604664236725 3.0271717021862794 23.12978846956102 4.378755608891915 18.901774704337495 4.133420981443815 4.1782190743892205 19.853008294073508 4.161641732898278 4.309540612634057 18.768015444630972 4.044516214408032 3.1796264264018648 3.880067148604621 16.415050236851993 10.481466999935687 3.557736451681205 17.37607649000907 10.556470279115846 3.153822507621925 15.822065613562671 10.100236189854499 15.28506085098602 20.001519215273106 15.502337659519513 0.9360725080145875 14.558732654854682 17.421751912015235 16.129020074256903 19.69443315521976 15.801575802236481 10.061276512920584 14.868492479664628 24.49316827437645 9.47924179186104 14.587344026629053 23.658997536769203 9.869987444494049 14.2359131603117 25.197026402158745 18.30602022787063 9.338844075594764 12.302275732638075 16.543965386815888 6.0975121719194085 19.97853946051733 16.00059998854872 5.907775140378933 19.168597627138077 17.321270579134843 11.542830453341741 0.39297866398051495 17.16173037831426 10.952367106662749 -0.36182512680865203 17.698952384277387 12.326784546614036 0.03960931821462148 2.791840714909566 -1.511082329951898 4.642518324373418 5.644482422608553 5.62520833869513 7.353862009079489 -5.560866696481925 7.891155036918962 19.55178362769753 6.850527882527596 17.455384948223102 18.40829381868943 4.84116651251676 14.284884832931864 3.955799446456699 11.443535603572096 17.945026474790982 -0.8004938349463453 7.14348685582398 13.86211458070238 8.389172967138387 7.99044362005246 13.526987412764157 8.891305988428526 3.289480558081379 8.241457908729625 18.541683346863202 21.82979360050682 8.95763206542202 -0.22466726143104096 11.225329244009941 7.116761741530242 16.0591115702653 22.558417474347152 8.904800144934509 20.40936860683351 1.8558789174669315 12.00692081545433 0.5942964391230294 0.8672669319850854 9.289987291303984 11.80791751792925 1.3775361358744178 9.470102947478118 11.002057353561252 -4.211363312977523 16.8558621345524 12.506164917480104 16.718963290135584 17.982536469895926 7.0959126430648825 18.930210610299717 3.032813763598456 22.603911163905014 16.809512004720936 17.218487301909317 7.697144159525352 7.1515791719701385 15.07641528930744 12.56653977901144 18.637571235446895 13.400273940967029 6.300916736899303 6.135753274574987 15.113409331369507 12.722516352742366 8.059322306837025 15.46827222541741 6.287723378928438 8.758183836730412 14.869599585384158 5.9860140926903265 7.661877620161496 15.038541829305894 28.334206813049526 24.960402398956763 12.588725759855102 8.41313449489073 6.512605794867237 3.7252331915314016 22.434256612341095 24.92594216677732 12.65385282046556 7.470156153840728 17.835381230983078 1.5239372895707557 4.687299706289094 17.9930832185335 1.2428723916838258 5.619898408998812 14.210946881896913 4.93746799908624 5.378465806992382 1.5676449878263585 22.29060651191385 22.926321238219643 1.8638772340708651 22.487660885596814 23.909523027826797 0.6863909239582912 1.62240912112626 22.70722710520315 1.4273997597063568 10.903783965483777 5.213968696978499 1.2341220787420977 11.168540987234142 4.249027885107458 2.157899446633741 11.514887522756519 5.478838518179534 -0.20642299472465428 11.818955153065103 2.86536506795873 -0.07948810178361941 12.762426469492105 2.644658320573408 -1.1013487697895732 11.579661562863954 2.5118641228337224 1.7888697771332724 13.464394162036328 20.975745093037197 2.5265259625420033 14.13083420537718 21.207857118212402 0.9823432604548406 14.087521305198921 21.003410202753177 11.380217511929779 18.24185822922701 -1.7387909987935757 7.586899407525928 18.497486850988032 10.305629367372118 10.728163576306681 18.97946637042527 -1.7582092153384083 6.7740289661867115 15.501341264371932 21.1871709522869 6.8793627643245925 -4.899542317116793 20.54922948126975 5.837444682886681 15.223282262957467 21.096448860768113 -4.1335024477137425 -3.7490672976820627 11.645542708690922 -2.595256338937726 18.58550593344819 20.784487357791402 6.565552603684134 5.261281799898085 7.641492252771109 18.046495847304087 23.66510332925635 16.25567505744998 18.73422365364068 24.22097275551807 16.744069523424347 17.261140116413294 24.22368620897028 16.014480587617182 13.492080160539471 14.97610524448177 8.69861946014092 11.548875668346124 15.058432132440563 23.21401832603018 21.949492617575295 5.321153241658842 20.923723657491525 4.434010628690099 3.8942631683592124 25.0410080508535 -0.5654970682642072 2.7799236618342356 21.84694329476597 5.934410432887879 20.402788638877805 2.2142218834558505 15.202836318084314 5.999397538624357 1.7332492035597715 -0.3811911213855825 18.93531791876057 5.197098912467304 17.667251560881905 7.305249623598492 2.0671836217511035 24.309967344338645 19.374536002000596 7.502782350507439 23.780407345506163 19.300598050965647 8.300157489530653 24.483024679331088 18.45105525488664 28.407470056259182 13.381891808265381 15.71802692022877 13.778931252469986 16.59094635801961 8.979811779629532 15.859134855258521 12.62088195881069 15.182501083783114 14.111305278260394 1.8334485378134875 11.128027184535451 1.0500500862796758 1.086404931454619 11.238234336717985 1.6982061742185368 17.98227744893513 5.358203683446245 4.823709753086342 16.261106142111828 15.997088583426963 9.312384248897969 16.327031154391836 16.33541800243696 10.214094702032769 15.347737656862495 15.887267873806907 9.007311867926942 1.3051857326637 3.0697263393905967 18.119704779667117 9.375533141364281 14.021688203582423 0.05986308624589296 12.351755002786252 16.52036941283886 17.402601071946062 11.977250382170896 16.743421971022357 18.287688228258165 12.651899718866007 17.400280327692478 17.05683315582804 4.475541715323529 -1.006321499236912 14.667396125666018 9.432666063128238 5.2746673347108315 -2.857116085908865 0.04800034401718104 7.1861981589320045 23.19425544449719 0.8862067953039322 6.907804936922963 2.3704115228158167 0.37944481877892583 7.807083935232226 22.514544754672976 19.038594171363098 7.324981171950739 13.014850751302635 8.787390538938874 4.885855983768929 13.75955899125691 9.494208607861871 4.477519883467672 14.31230136608063 9.21605560690518 4.961371038234533 12.811934983942306 15.014856033544076 7.992024901240545 15.969883027028523 1.8343028892083708 2.909233609875472 17.271519754753573 14.317935071977942 8.599040522865884 16.132615034527305 14.574842087513217 7.545184499565482 15.105496658792934 -3.0705598019983196 10.834861412246173 2.9903489481789305 -3.2402791088024423 11.165163270350213 23.346910701069522 -2.9966134954485035 9.862022549949572 2.978233451625571 6.90124585775442 17.135164018802946 23.675294968512183 6.8032231351228765 16.490147515574375 22.8594436972451 7.860995806015961 17.256724226807464 23.839762834224043 20.652606000050646 15.113887684595495 21.0279921274842 -3.2799615377721274 15.79261869030186 16.76463035662689 20.790471995313016 15.876656369929137 20.402136908718383 3.9775028963169414 17.580970425513538 19.413050747767986 3.320659161797835 17.89778648262646 20.059414577768436 3.5307021833374845 17.316576868659777 18.565640696858114 4.315170140773938 2.5579009208577728 4.989554189872106 4.328048078058672 2.9452437900622592 5.890324647584663 5.231527811466007 2.172657374762963 4.796972105520307 18.29989772435375 1.0051559049133303 7.2855702972141465 18.705317749967335 5.452115492764511 12.131156877094169 18.66378875221262 0.10781956381003598 7.360182956074397 4.14504141374146 16.67058694794951 6.497457246418105 4.749997400952729 16.674647728173596 5.726771710750457 4.712648249508924 16.346505770662002 7.257717188413717 2.8428010000674555 -3.881472963980554 16.92198767918915 2.2414984617306386 -4.69113279873313 16.80130688912411 3.6105934387133107 -3.8312960083412 16.259754637582517 11.498631868587857 17.65215732327939 7.04815460897877 10.906787773077525 17.935967007799274 7.781724947618815 23.56669207518361 13.429958996401476 5.9549336662735275 17.32576166837445 9.63838301684685 15.742506489902704 18.07263607555732 9.322678243210893 16.26861357221748 13.23090138802978 15.904359079462008 12.863254556239365 3.0628873504740968 15.872691678125985 2.5741607527838677 3.3491786229087004 15.141893281542199 3.155483166201222 20.130373787754234 15.403621429154224 5.30559318410264 11.4849726906633 -0.18277897653715822 3.649701426036069 17.41043018937399 1.2022499672918978 17.29936450803914 10.926978874747311 0.591386631071507 3.3650039680618473 -0.20285727875627763 17.92059912708495 5.049860118405811 2.2131273110086163 12.540806882107848 13.297494841498935 9.836561207279072 -1.8820588344157687 12.936795620318257 16.629548836693075 1.6336577330124396 11.562114981648744 10.042146561638571 -2.539999230260826 13.594969970579518 12.40016476703179 15.310432371871729 22.742997064337583 13.083497572549714 15.468974088666018 23.50889906774537 1.1666366740611687 8.337571396214658 11.892166174306853 14.110615948284083 6.832822546529963 13.759701035009604 14.525158107250864 7.378698777013875 12.892613746594103 13.075737388119416 6.784594514732727 13.699098485698212 0.31263203304457987 11.721431672446707 7.543003710185877 -0.36869544890589334 11.14905801544911 7.912904442110959 9.164343325409495 18.434805867354125 9.152539071784835 3.2956678168384568 1.2870605320441308 21.005540859043595 2.523833397876955 1.0756492949454382 20.44264862253836 2.8503376744751314 1.1945315604359212 21.87802998781892 7.3008128452055026 2.2525590745323694 1.8159207565067221 6.745104262604924 1.4996519856174182 1.5481014385585599 8.267408049019693 2.0151287641459787 1.8932468688191815 5.886735953950409 6.320451930652238 25.977999665503166 7.0558500381688685 20.32894886514251 25.63755630123248 5.233844377962157 5.899060338375379 25.38224101127887 6.469587426587946 13.142301597286547 8.327028825334517 1.0871485722775494 19.319834535062178 14.326768940068314 1.2943653409143203 -1.7650273154677472 15.288300701874686 15.381514825701775 23.56708478438224 15.79115229744316 15.710824466415671 4.137845226564507 7.929613382961014 16.60564579754478 4.3720461304558125 8.299764780332026 15.730246860717935 4.207799685887863 6.920016521897263 14.6938413302118 6.8086145310891215 9.409997551301158 15.27989087616368 6.075591478672692 9.153192890822973 -0.11620432297644727 3.086433191361937 7.905200657405994 12.78933958287029 5.1329055806429436 6.033945503709877 18.19042167972185 13.334942170242396 12.909963973209997 12.272154101551964 4.303332465089818 5.652599805299303 9.438573412137357 17.571338605753617 24.144446683753873 8.759877917369167 20.306606218395142 17.40008606197188 9.812697856826386 16.644423742030398 24.28339889594861 9.867537189760066 0.9568881844204888 12.21842396321653 15.054340019035733 6.783192877114226 17.192384673472976 1.8831847400437447 19.755766812081788 17.102335200900775 1.5621219925009995 20.286057918464902 17.89585635869279 2.12777781554763 18.79557193265372 17.39942179854016 1.626022881305107 13.061727278570556 18.093518596082134 1.6718988356680178 13.116932165279556 19.085357899180348 17.4770695981749 0.39796481747583723 17.872030608056992 -4.132804762222566 0.46230645968904105 18.494510198817597 1.8591521904150545 4.188053515384603 19.1022736390233 2.3784996612045424 8.152097766133