-127214.2993309276
-127211.12556504861
-127215.71372029254
-127213.60312263732
-127211.04806063269
-127211.28329474674
-127213.15827760065
-127214.58465752582
-127213.50127056356
-127215.25652604959
-127210.92920239644
-127209.94672068783
-127212.34147838921
-127211.97875540429
-127213.05225851164
-127212.34355108032
-127210.67515732482
-127213.09717185312
-127213.62475024522
-127211.81090633674
-127203.84738872408
-127208.61804486912
-127208.94859093685
-127208.47356167267
-127209.36396073856
-127208.03992065121
-127204.58285855141
-127207.15645477381
-127208.49964242351
-127210.14660394886
-127204.7231969099
-127208.97114128277
-127204.7492983414
-127204.27606951843
-127205.94671311115
-127196.44732104636
-127200.95468827663
-127207.04967417421
-127192.35235526397
-127205.67401640464
-127187.08558007982
-127186.31925267923
-127191.14884364762
-127178.0217609087
-127187.57162505644
-127182.00884335017
-127181.82614026844
-127190.06148872136
-127188.30223044075
-127173.90991672123
