1.629471081247297 -2.0010700500447856 0.9357275416287045 -1.8871593813665437 1.4580726027652309 -0.6807198736654148 -0.020524859426229166 0.48754312296599256 -0.48322186988281934 -0.6870779546729586 -0.393065109091065 -0.2895244707932369 0.5963966888363019 -0.10895101068012204 -0.5137596334603604 -0.8150582140703898 -0.3800630404044422 -0.6393929898921699 0.03942581009579016 0.6717793766426753 0.44437738621179595 -0.09648990209863383 0.1992278419895085 0.33260356137089814 -1.2852939561061865 -1.1218162751330938 -1.8752271487053318 0.22912540087988928 -1.3598189238979548 1.8164805267937427 -0.6014221670753513 0.21204427702788642 1.0553103209910597 0.018409098634807004 0.205245251828182 0.47936701491310346 0.3424735121864424 -0.08834593283526075 -0.6399781729716785 0.9760987463568995 -0.28137767331638636 -0.22543098274743759 -0.985239275205587 -1.8816603059251853 -0.9455265299969975 -0.4397964517093329 0.1611091807409161 1.6657002387826605 0.6949190479839322 0.1257526556184931 -0.9236261303794803 -0.9742023006651349 0.030693315318798754 -0.9768783048354013 1.3030854757616526 1.0149535144405681 -0.4584685741975395 0.3046764959433269 -0.7004338071545743 1.1654026443644767 0.34859685147536096 -0.3407177058376003 1.9924861650305168 -0.658958056508291 0.09129961614694598 -0.7826463733985877 -0.10449631734287809 -0.48699702065453554 -0.31125286360926396 -0.24918411930297726 0.44901308521159444 -2.10175187873758 -0.037681059490541555 0.37123695747238 0.4974084457958466 0.5715690882696608 -1.2363033851400964 0.8335894401053578 -0.561016252454479 1.1952156139608514 1.9049478156982165 2.088552606438487 0.6415853695577982 -0.9118093402502103 -0.11978692495336143 -0.22086418931236157 -1.0983356755126503 1.0520149380692398 0.6664839325716908 -1.3143137403773042 -0.28639158159121 0.25540773161518593 0.034304686819140916 -0.6853982529776905 0.6336432318925862 1.3375261739380255 1.2306803825263644 -0.5306366117213571 0.006926037695871943 0.5253686784541984 0.6368753656766386 -0.5863287630773386 -0.12201350029103504 0.06379421163782562 0.3180997113277683 -1.0344954411282379 1.3767234129627774 -1.4358577572310887 0.5815300561371146 -1.0508232317539838 1.4123401337251227 -0.30173001172049324 0.4070994756969441 -0.40787132086596206 0.013065060714074272 0.053648895673707606 -0.6367930903754775 -0.27054253037409537 0.37972159790462345 0.872971027226774 0.6798295006406614 -0.09486033691501082 -1.2267483944618098 -0.9990800377434214 -1.6490016950810569 2.0323320933828612 1.72238869261364 2.0579654776802494 -1.882511855292203 1.0223840025766844 1.3022760924864796 0.4555711980450864 1.5223262705379783 -1.196032710545508 -0.8192745661445825 0.10328687041580922 0.864557349241782 1.1549752783835656 -2.2513589723761678 0.7209838633917841 -0.7994570171980231 -0.11987485668147742 0.33646278721598827 -0.24215420903938942 1.1642219937928142 1.1181843348074614 0.24189838427484142 0.005064301896784826 -0.6578532534798863 0.43601358762813297 0.7379729417506129 -0.6734002000755499 -0.29983665135252235 -0.5172069685790125 0.6269925593452879 0.050901414835557504 0.11192320593456855 -0.22065027352934258 -0.18773346819666378 0.07687778429466115 -2.7871290486693487 -0.0879119306216357 -0.23724340200133337 -0.06143342471513291 0.7693262592509137 0.8829456219409827 1.3350823403832233 -0.550063352987401 -0.09029637169341223 -0.1034946155512411 0.7351526986929984 -0.06046823258838618 0.10782615304705948 -0.36319814632830355 -0.6512226355372461 -1.7076593568232654 0.7145939007050404 0.2494851954831639 -0.3323001711978664 0.19568846137768234 0.7865901885376841 -0.9481202588661025 -0.7678445324990646 -0.7578794508665528 0.978182882579438 0.23977311040172253 0.2783118899068691 -2.9462890761036937 -0.42735051263649626 -0.3616804241321965 0.1631966593975641 0.5310521019922209 0.7779741647338989 1.7091022599173793 -0.2680027946713771 -0.31403711122262046 0.20979610442365804 0.919338815858036 -1.098434920094676 1.5995305849341226 0.19280394074103568 0.4129181392612502 -0.21304777859173632 -0.3993925939709896 -0.004326138179179646 -0.6423721271251518 0.6287627638718333 -1.6939692609306827 0.5989335963255427 1.2720697441064286 -0.35684572174771445 0.5416622734078994 -0.15726975239016786 1.0027662283457568 -0.3541625184885965 -1.3717766104804632 0.09082961848906293 -0.25936311671850815 0.2119090370016028 0.5483767093135975 -0.31356402824094387 -1.4473264199923204 1.584136876086872 0.41566099211370994 0.43037747238827817 0.8011665436899622 2.00535736456623 1.0643608612291025 0.15994035724379552 -0.18846674681826253 0.7887745977835126 -0.410798521815086 -0.0005399316638700378 -0.07078709801589099 0.28671245526573846 -0.2992715228776717 -0.05621408529772254 0.6585073421241175 0.16676303659258376 0.5890443622362886 -1.0220821550655494 0.3631179279096714 -1.2933350812431081 -0.1625096606328685 0.280441277545046 1.0948970821447466 -1.0027425741966731 -1.3869170656663277 -0.34404214222514296 -0.7070441133822404 -1.455549579233061 0.023190322073534258 -0.5163960426419428 -0.6082245347091655 0.38594675287872887 1.0045608583523344 1.8794555849643826 -0.07963837775893381 -0.4489387803302333 0.08137670060627922 0.5601055677147515 -0.0652132034725393 0.2709135405602689 -0.5220846083862879 0.6690331813561058 0.24259875277597578 -0.5023495918512058 -1.0467408341544941 -0.4959220910583072 0.7864729462335294 0.23876652351407912 -0.08214571756181982 -0.28285322942064833 0.4586472658672488 0.4074360331007564 -0.5474097174146378 0.816452009094123 0.11085696945358328 -0.7232770303013349 0.03856243365423036 0.089106208040053 0.41113482210858227 1.9486408857107926 -0.7578123450740433 -0.4822607915211307 -0.5496609753426598 0.9181003154652446 -0.15134721625814582 -1.3434587373723765 -0.7661728012235965 0.45029992234381805 0.5404903645869852 2.1178523838438688 1.0094708940594421 -0.35997629695689615 -0.48790179185699195 0.3692710919952608 0.09614820248849892 -0.49481214582358 0.04676476695936463 0.8235156008091238 1.2708201879700436 0.5611486642672853 0.2487891978574038 0.3247634965011891 0.4830935718350712 -0.957824373527744 -1.6613375909385903 -0.6758586889183715 -0.19468393137256793 -2.6814132570970726 -2.025776808762847 0.11530549214324012 0.5201136007028462 1.2815360317256508 -0.16376538741684055 0.8478446644727914 2.1276570286391165 0.6162967701943386 1.5604361900358223 -0.21350929160918714 -0.3283468429770732 -0.7765425744936949 0.27569553532994456 -0.5961192668051991 -0.2629091821985537 -0.5724118958859303 0.555745748084159 1.294904225502441 -1.604426222463527 0.27134754277389395 -0.17973039538652916 0.6091303343528864 -0.16638405598661024 0.4716207953087813 0.9290547575942193 1.0348227425606693 -0.017701273934505 -0.01212146585388235 0.2000408248091071 -0.3976717546251409 0.03577715759960936 -0.9308303614374034 0.035989273610415436 0.2922033031769806 -0.5428719774452844 0.5909500638994338 -0.3261652619447222 -0.12002552332672876 0.38027155687082254 0.263979532444597 0.6893281841597161 -0.9866019598810685 -0.21810488139966952 -0.35670739639763727 1.3758903755385206 -0.3789343261166377 0.5808086045900577 -0.3525123844796832 -0.3642052474365792 -0.5683032730341955 -0.5311109802546143 1.10238953386705 0.8473533266586697 -0.6766490460301509 1.5756144404381573 -0.17386108108994572 0.23346028080981732 -1.1641142645703566 -0.4536392711296962 0.1277563163120832 -0.3592417327837168 -0.4128083531562633 -0.39669627808574903 0.03198837998113846 -0.6439870370207554 0.37533555302178584 1.3077535706612835 -0.5123930921301368 1.1341125760019435 1.028687319086893 1.0268073284553605 -0.8206141108916124 -1.5367689283258694 -0.16116574501046435 0.8957057498201284 -0.46735559227452417 0.967020181094399 0.09743066874534834 0.22573720113394669 -0.5345552300494729 -0.9773285049989426 0.5360572685162961 0.4876647361455214 -0.5392042987857101 2.7603402106112784 0.36977862775929865 0.047910707638349745 0.1739400139569972 -0.2887461978663156 -0.6585549075326014 -2.2028276004346834 -0.16760481576758876 -1.0056970288393068 1.6172992217714532 -0.2206055363343362 0.29201304154304547 -1.6437203920774595 0.6510765968776852 0.13018832279234355 -0.15559596423217073 0.8089626426956132 0.977925258042677 -0.8197574193182721 -2.0933608264604078 0.12712871003041332 1.1236186184491552 -0.2984693386913505 0.057639247780023314 -0.6215564759313811 -0.8152235360036606 0.2904955764572545 1.365757400869577 0.2989905013021431 0.8334973946121838 0.06934008115671929 -0.07830706054201998 -0.014615693030645796 -0.6035453840659412 -0.33436759524985643 -0.5185665679307004 0.6742098404610388 0.939551286250169 1.348746211023561 0.30173798214029324 -0.9719793248718873 -0.10301741880450645 -0.3119699442809466 0.194981922228961 -0.21373734845959322 0.0016336789486810575 0.8874573937684072 -1.3200516713023458 0.17593827533394862 -0.9820181971651282 0.7129144561200883 -0.7479179687784668 -0.6076907736928825 1.2067907203929604 -0.5272054745526211 -0.38230992745709 -0.48860138902717787 -1.6593357300172134 0.08162249806849814 0.39660346126162666 1.9101098195151294 0.8872704745685815 -0.05919939317829159 0.11691705960473413 0.45118952403762297 0.4310544438506447 0.9380014252645458 -0.8189081839440993 -0.4552739785196417 -0.018528397821490673 0.07701790941695123 -0.1199609886373805 -0.11799666582215808 0.6698196818131432 0.29277280252720544 0.0179036197532982 0.028587581829705604 0.8796782640436205 1.0014472524240172 -0.6270470667323071 0.1157153259871491 0.4730120192293531 -1.1790228062510728 2.300590198598154 1.4914226389805862 0.21110016794706227 0.0978646709589734 -0.9357013163764595 -0.3743490207388005 0.0782749217525039 0.8358417264746444 1.303633892065955 0.5041892161631059 -0.03882340062510088 -0.45028835237959225 0.21013009072430908 0.613840338234046 -0.08781140048802942 0.23397424433175834 -0.4937633928440916 -2.455361095825868 -0.7397434033874744 0.521448774574502 1.8624245976240248 -0.205049333767292 -0.8338938587196542 -0.9121924346212419 -2.4759898278198134 1.0584720065484932 -2.8168075495703873 -0.4382244792365227 2.1001009733977187 -0.12072486338659855 -0.8846163247751863 -0.11615755573089026 0.9520702446527863 0.9394201599889435 0.38531477572168477 -0.6836671292191968 0.26597110895332904 -0.4040488617960783 -2.0863149753572197 0.5734801892494447 -1.6528565500507728 0.03167007740977127 0.7075241383424524 0.8198126980362397 1.931335304552809 -1.3232200417279987 1.0534586124943017 -0.16528002428915406 0.7691879339008365 -0.6647034436325003 0.40497163072066383 0.04129525920436114 -0.32017407735829373 -1.1426321834371804 -0.6789864359140758 -1.3263411038554835 -1.272426870335531 -1.6780741869669809 0.003091751551446288 -0.11475193363261528 -0.08505003569280836 -0.3093646454476156 0.4960498748854232 0.4728587814809405 -0.6848974020818721 0.06020366607308986 0.01701016140475135 0.44567219376381956 0.31806551565572316 -0.21695791227941988 0.06561403845538379 -0.06638536940376955 -0.013730976432847321 -0.5808960220975415 0.9067491521184836 1.1515503118624169 -0.6921312008261499 -0.5541359803948779 -0.6020559440046083 0.4197657583107029 -0.889426858789952 0.175653139993362 0.5176353143656827 0.9610349100452417 1.2298568581838043 -0.010665964354278405 -0.5758646303212211 -0.932851248522174 -0.08308108489189563 -0.14611630687650964 -0.5775692717171537 0.3204777246416416 0.7664286259881445 0.6865511356352111 0.4482708077289312 0.25408464192838826 -0.1618378313768245 0.14043905398607429 -0.8785816885453321 -0.7850989487041382 -0.02832558641757057 -0.18873568420893302 -0.15058539839145682 0.16201780859811452 0.29549508655437495 0.1424434860106127 -0.04770913315050493 -0.31956344035748835 1.7685168544302703 0.13162865478329588 -0.1430854904699858 0.5170807274137933 -1.2652272672632985 -0.25262374111214553 -0.16522783089497994 0.24389227477641867 0.3301936663778249 -0.17440178408476417 0.04946288261681804 1.5590868750967795 -3.8349790567276214 1.8533020664974664 -1.5711553762255392 2.269996127861381 -1.000764881645012 -0.004419726334250453 0.8560811934499708 -0.18122472054386854 -0.42966681947449875 0.3259675441116192 0.7215047688922607 0.12603727673844745 0.5418900731479894 0.03163279641393262 0.38457198401838927 0.6457369298323266 0.16713224700654442 -0.10672906332813875 -0.2592502452897277 1.2595934660162889 0.01369138144416352 -0.8298256021875514 0.34984975004585556 0.07580871960019847 0.4167418838827145 -1.3842454323714353 1.6425654525374098 0.35858944391169856 0.5673951593976293 0.0421177551056565 0.06200420961693838 -0.024602886150344727 -0.5672149250660232 0.09488784771883657 -0.34145278423141195 0.33829212711524315 -0.2688198912560338 0.3119979693054046 -0.003659194019142085 0.1976558695166983 -0.002327105471279863 0.600190094440463 -0.4155375791619682 0.9465446868488666 -0.5123432127288079 -0.16844890893543893 0.18020784924357994 -0.561206256978098 0.6975785970939664 -0.3489627194552119 -0.07660344758735195 2.413841636425843 -0.182171400727854 0.9743912767474896 -2.8556381492843403 -0.8908270815715883 0.8838138834785488 -0.4661122067857263 -0.9935272262459921 1.1785070429569189 0.5558593908438879 0.3014801004932163 -0.5873147811396918 -0.8119998868600403 0.07415344338496262 -0.16563072276035345 0.3424904814673069 -0.16225177898579152 -1.0841257025608555 -0.7431632277023008 -2.022098074359679 1.8482819875750554 0.4956251286431786 0.404042176927859 -0.5360153595347672 0.25147702910221204 1.883157202185686 0.22635143767917792 -0.6995838004494532 0.3404572530873621 0.0828543135930702 0.487208108224077 -0.7896444019829756 0.3461224217929394 -0.03359454812599375 1.4491855846882462 0.10848795500077446 0.6984599712576551 -0.8496701477173043 -0.382663968362399 -1.1617478212207089 -0.6801532025286674 1.728838819114358 0.9598771422917147 -0.4807114447561398 -1.1517449443717263 0.3009635658681139 1.1301697893041116 0.11992370764154185 0.2377378251392486 0.1469154057390373 -1.093538254124007 -0.674546140754535 -0.43734747594820805 -0.09016190299807697 0.9305832784236038 0.4804031694871017 0.10298142336024844 0.6244679931512214 0.6549666759607108 -0.5866511794137639 -0.17909816111916899 0.023678317453546316 0.4537925088781088 -0.49342940654344053 0.1210573070253528 0.47530801435238135 0.4447010880998019 -0.4049459196890509 0.169708749484469 0.9689811614755118 -1.3260593109490066 -0.22786813143402046 0.08029915127138429 0.204047631975655 -0.6249261637345624 1.0318299784809326 0.5959020085880705 0.44208370508161277 -1.3761107190794428 -0.46124330872919916 0.49734185422396926 -0.3798995182433844 -0.021369466814711583 -1.1523951763612152 0.38987616984012213 -1.7544274662167398 0.690837678825707 -0.6482298714575094 0.4947434973691737 0.6966565995003292 -0.13818445362394266 0.6745715946758318 -0.8036949665387706 -0.11823295020268025 -0.6436702771112851 0.874714492280442 -2.131467660634458 0.3663341208541239 2.8177308327156054 0.15512339547112639 -2.5333179721173207 0.7304846037933677 0.2947895758469181 -1.0204009107083847 -0.8961484937845017 2.1589635520618815 0.1684864470415937 -0.3869155445499014 0.6543149013093248 -1.2705893029061601 0.043960721851666225 0.03519865938832002 1.0802973299537009 0.5253943894858113 -0.3946373386741913 0.5066564467566758 1.256706888497113 0.1485053759339765 0.22176047587438583 0.9061377437867297 0.4225209524583368 -0.01672245496100346 -1.1240695899436446 -1.2433412658234844 0.09072034660470828 -1.1781092932978676 1.4265575628760852 -1.5892672553349017 -1.1723754761378842 0.5913868943265363 0.044979907144799956 -0.46047480599429086 -0.7642773839730967 -0.2385479797453698 0.35043056224999003 1.8495713958104403 -1.2035323613566626 -0.2600285182166489 0.6204033361635445 0.3488742735064636 -0.2043317388749771 -1.0186494752349164 -0.21623234696730503 3.9447957578421478 0.7499684235495923 2.0139834156723446 -1.2625366078050126 -0.7892006295773376 -2.681450538092911 -2.677083519373467 0.19243113078264923 0.8063254621830822 0.16254797006997165 0.760555197926503 -1.011618536530064 -0.3597698373730449 -0.4982150008575419 1.366025309818983 -0.28271978916657764 0.07400637628413707 -0.8052157740586713 -0.7414213053105295 0.27228162455238913 1.2769044464909105 0.3384769894325396 -0.4255445697760091 -0.08150808397782092 1.8497300328754918 -0.6724877155636095 -0.6097774810185821 -1.189610609069248 -1.3004614078752441 0.5912591104994204 0.580485159812368 0.8651975539289422 0.31763357032462713 0.3314727902005646 -0.142562013866348 -0.7979462369804516 -2.424466977350173 -0.37244794706134565 1.2179675629453863 -0.6857741482598706 -1.0154381673864705 1.2432399643589298 -0.0120157935139535 -0.5710525536445584 -0.15726512440447754 0.5436636201086444 0.04284923395504233 2.005167617152927 -0.01234386627733358 0.2276824977857756 -0.5857214685106429 -0.15735794122859995 0.05312027686374722 -0.7865809325663033 -2.5143064640118244 -1.0455786955255928 1.4545486487723724 1.4473253915510558 2.4371407161630994 -0.3111921855746576 0.5427825030552716 -1.2064616191883157 -0.6309829114516036 -0.401914846172211 -0.8839493806151486 -1.3799645456078944 0.7591506042694925 -0.41701056416306886 0.41470145641391803 -0.010185939394066328 -0.9998817077091103 -0.11567701655004593 -0.9540044855610215 0.4263205287100851 1.3065307539977755 -0.12201812827672534 0.7728725818412755 0.47232964845034786 0.4204982656013532 1.7761255200154638 0.12246087224109878 0.348366994852742 -0.08443965580231909 -0.5518163311227657 -0.6463082289547643 -0.9947662408594159 1.0989445127412427 -2.1205654118996575 -0.11539368098167224 -0.7113172868362976 -0.835635009780477 -0.7300256618790781 -0.9756022663364553 -1.3853443218625692 1.0954642675021262 -0.09365731774584515 0.12870839581270735 0.1323565340882559 0.070483193622227 -0.3833165143447334 0.45972070143708565 0.47003802420269375 0.651274314710788 2.216932929487814 -0.5565792997290478 0.6046219049595717 -0.28309105646306726 0.5114214722454871 -0.5631623522632043 -0.8634211787548097 -0.31622434868192634 0.5953952441549811 0.18968442127544752 1.0623980810757767 -0.381186355375608 0.9904303324882232 0.03383803159536753 -1.185383458361778 -1.022157488388175 -1.4873525826762708 0.8352123204207617 1.6860610618271994 -1.78663156175311 -0.1812020948360492 -0.13016312598136293 -0.29484305479267287 -0.21154008369795826 0.04152228761350268 -0.44015409215906776 -0.17395595479659717 -0.9688348657056348 1.3002184386265028 -0.7497082279096702 0.7335133633173625 -1.5770162058816906 -0.2654023809340526 -0.4783861390570729 0.07319776433991265 -0.03238304431639584 -0.7212245186476804 0.04492205732367102 -3.0798234325501346 -0.8014719907455229 -0.5486003952886294 1.273018481172943 -0.5595175564217655 0.14309628910326322 1.6487792946576059 1.3500631300627717 0.19964307515005617 0.9892368264007544 -1.0206199686977262 -1.3488230870080835 1.646420821727758 0.8022710896080506 0.7054551716285657 -1.761098193368696 0.12390943176216725 0.5024426657856443 -0.43441924655781955 0.63706588442089 -0.45587278844590523 0.36556253279542206 0.9573854862181125 0.5724370926969109 -0.6098461294729884 2.6295499925688777 1.7529580807600649 -0.3692633786857769 -1.6329194448072135 -0.4632695951306086 1.879784686169027 0.3847229077739568 0.3439835210730657 -0.8399074119035858 -0.3198742867296878 0.8563506450612737 -1.8239043300616393 0.011646068879360587 -0.9705868153997349 0.5742350651375981 0.0860116282751293 -0.3342873768312243 1.5740815487333986 -0.8660010236668442 -0.4518047890241187 0.3086334237085459 0.11585699377133594 -0.4543460673887336 -1.0702869969055502 0.8508070895352251 -0.3843123025990994 -0.628082449975357 0.4270643488546451 -0.3285808133647502 0.5559048993698427 0.8742560645867847 -0.26303105248839864 0.05047461171078404 -0.11261149025084477 -0.1325336830960685 0.17255598912527703 3.356727129255567 0.50233005146718 0.0021653830824349806 -2.6114604820570184 -1.0426352966265529 0.9424908284944672 -0.40091365860120637 -0.09353647589726471 0.15419548434021832 -0.31786188428534934 -0.14708072767230798 -0.615823944322978 0.4429337117867339 -0.9306583546359134 -0.18905475811124858 -0.2650095163710081 -0.5715683169387124 1.7813548867352031 -0.05577519798809103 0.8939555998982411 0.8288077024459984 0.8083689749756723 0.8019890395912574 -0.05510979648995025 -0.6107035923772773 0.07088582837728437 -1.1202515017491352 -0.4303767010573297 -0.2943661151562543 -0.6562468282247149 -0.21622000567213084 -0.9591132675424967 0.7874342817055342 0.2725523617152726 0.43647921441064186 -0.30274276925572374 -0.2243092104381685 1.3717089904673214 -0.736291440283132 1.5585996510477156 0.13053722149133004 -0.011154731065238854 -1.828184188383916 -0.37441304120751645 0.36298474476591674 0.3497489628019331 0.34594398723354614 -1.595066378515182 1.505774279716568 -1.3586657841301182 0.09011510892054157 -0.44475482415587275 -0.5165724203188071 1.702683757985545 -0.42599194172607274 0.8765003805362711 -1.131571811857961 0.22000749773902112 -2.6976934823143344 1.6066741379574394 0.22069501072434894 1.844575485257746 0.15513008033934575 -0.21532551888231946 0.3376053854608637 -0.11027255770502299 -1.0184838961913298 1.1500906965977549 -0.2992782077458911 0.14588825002610362 -0.5926169100788956 0.3643610562881532 0.12604344738603454 0.1780514650222095 -0.5707951862181136 -1.1536313627611614 1.7389892772847988 -0.0802875813071585 0.07600309499919168 -0.48498153288640344 0.6106305730474967 1.2021527074003169 -0.8092981716581611 0.7108004951008791 -0.9175321016666005 -0.7614512273782111 1.6059961380538084 -1.3906737044952824 -0.973467993602272 0.4993946229879399 -0.20888413413234994 -0.019865628575675465 0.22545000891083108 0.10602818060637223 0.5266801981767704 0.32771152338591947 0.6056050948084474 -0.19912576919400543 -0.2088093150303565 0.4919517935566495 -0.41601734701186416 0.38221839618454817 -1.030157475874516 0.6922479289096723 -1.1753340445455758 0.2758302611355959 -0.7104253711496475 0.6465704814772155 -0.9175177034888972 0.20757107174788125 -0.477864462225648 -1.4842394909685857 -1.3299964412198837 -0.15324983259749736 0.5501204314775816 1.4002916872010207 -0.14517374045758222 -0.06805015870070215 -0.14997399005970302 -0.06525742644691343 -0.3157412383979208 -0.06085132695941778 1.6370059561717614 -1.6523700973326576 -0.22482034574663215 -0.14178014139500097 0.8866104723870796 -0.19098488525442592 0.04147729330818018 -0.7333796659529757 -0.45862464015942955 0.42673653320158117 -0.20595899006575497 0.6485435460431862 -0.7608462468043606 0.2903019723892097 0.6602752326578177 -0.08673539381503127 0.1669065041489835 -0.03194415700676435 -1.7607163845492453 0.3456431681636757 -0.08992587572787093 0.5450180772540097 0.029263524850807666 -0.0495101909149857 1.531187834693666 -0.28770335842409805 -0.2468251321524975 -0.5757638430772988 0.9038144949701918 0.04986860269566895 0.22456940607809067 -0.5069888903954302 -0.10252659521101697 -0.06531887581246815 -0.43727959882475015 0.29965230325585807 -0.2718381092570673 -0.35931243812065217 0.7247978378212356 -0.051909287274781564 -0.04302458319064203 0.2871078909319443 0.2245210693386585 -0.5115901366128672 -1.5023300299217093 0.7860767392363752 0.2643664834703705 -0.5943205230335635 0.19004386149739527 0.4118989539681165 0.07856391374783245 -0.7792509745637934 0.8249816438316889 0.7395680541518747 -1.02791778791072 -0.18869814610277824 0.8618885441603671 -0.7562856240168717 0.06682271405150426 -0.9340223860121398 1.4481838828966092 -0.3137517187717177 0.3035511240896321 -0.5111983004910874 0.38487897373584684 -2.1758541571696335 0.023091591712140876 -0.37134622935673467 2.2312830275618993 0.14259646664870926 -0.05049878008050013 -0.44746271000533905 -0.5448129032217391 0.6202472702016544 -0.5533312251053955 -0.28711766112395715 -0.7269236259149867 0.19975157570346244 0.6902956902793079 0.16462773541713582 0.6834562987599714 0.1679624562173236 1.5452486836621064 0.6545810104865178 -0.6989765058827574 -1.3261019912614838 -0.8045894533285821 0.45577611496704085 -0.8418388245983437 -0.14475387931134426 0.12029086117297347 -0.17382559986631999 0.505963020234077 -0.6728975494075184 -0.7735120151974871 -0.47400677904245464 0.21589116157780236 -0.21410784442513447 -0.012053074509792146 -0.6753496104924369 -0.8209676375762892 1.0405827849728981 -0.03994080205899573 0.6713677430265534 -0.5536438712498079 0.36632640754464 0.20105666766813116 -0.020046634238229992 -0.719739963682354 0.5740116362728824 1.1599956144162926 0.1981934871877232 -1.4463116055745608 -0.17768585415267463 -1.3190489410694446 0.8738894252759852 -0.2907768551430992 0.8863245657155445 0.38133162270422066 0.6267832715479592 -1.2463823666426534 -0.3767571159596608 -0.8242339670323868 0.6950553164514803 0.4244371956444432 -0.08995415786264507 -0.4397843675244749 -0.3204535562719255 -1.549720603390531 1.427503214618806 -0.18412415357885065 -0.10129503679676102 -0.14435304432849977 0.23118768272555668 0.1544721350403727 -0.11749735758823635 -0.8406224356927393 0.6321185677179436 1.3184853552564906 1.583157800003054 1.6640125666675922 0.13337931892581548 -0.25337887411061527 -0.4155447782508198 0.18660938189454956 -0.3094176101727381 0.44602289223501895 0.8685687843940203 -1.4941883746511815 -0.40544317104044364 0.9235880780526933 0.47809534728953146 0.9610871034394156 0.5862889109783386 -0.9468547618901175 -1.5913462493511172 -0.018016491182078646 -0.3213243889126531 0.7386974786214633 -0.3672237225479289 1.0063770856254666 0.7495843007372961 0.36082167567632695 -0.23428740469680295 1.3601056019004383 0.41743119664025535 0.6088439134607192 0.042323443358559365 0.6884447531134983 0.21243739870124706 -0.2009417393568217 -0.6999450404436138 0.4181037972272476 0.6903802795733143 0.7728322155216433 0.0023808415273507385 -0.5191003289469833 -1.2325847986379286 1.789144815093267 0.3805872883390284 0.5796109847375307 -0.7387684410687146 -1.2227940377997522 -0.4957194881291979 0.5423150765005498 0.41024239220129993 0.11212940840810368 -0.21548441305768695 0.7038325484234782 0.8539019264104648 -0.9256063940343028 -0.7108886839393112 0.21319561702351028 -0.13427534837752358 0.29852924539500847 0.3961100665649758 0.837166615933655 0.3818003348105231 0.10518125922504466 0.07988237544893984 -0.8218274144734233 -0.3377177426690119 -0.6176062330343816 0.22034996868010437 -0.38123777743883375 1.0958424767771513 2.0294213474939697 0.11706926891188224 -0.1824349388018858 0.2882713151124261 0.8256385606893974 0.2687826102601952 -0.4262379962986078 -0.4227024723415236 -0.0029644819449626365 0.05224970133333583 -0.22174582058636647 -0.02991889904661944 0.03430083016439899 1.3596859978645164 -0.8361844545260438 -0.053008948096863545 0.9310527618608546 -0.33350241903608374 -1.0468364791920939 -0.524160002858078 0.23933525153335555 -0.24389690276210896 -0.3262105133603608 0.2825063876041909 1.580878259940258 -0.07091488184300691 -1.8611344180576916 -1.8022996073076702 -1.3250920619397308 0.2964417667383604 0.9862571749471402 -0.7981938342148834 1.250352664144311 0.8149707965629062 1.168854093248187 0.23578738628109716 0.8661462909954567 0.5917738453523098 -0.05045198600296472 -0.21995016213852442 -0.17720248675835287 -0.6420160293373137 0.2573275743457181 -0.047138862469331716 0.19631401077682317 -0.3811724714185371 -0.6938720947766567 -1.5503777773585556 -2.1897532837492286 0.32855870187756314 1.6537091278590552 1.6612740846905065 0.4852404429747449 0.11315656412103736 -0.22269969985920354 1.0934230687023814 0.8037186206878545 0.521486569790973 -0.20416024629411933 0.41616030034763163 -0.42377925034547015 -0.2725395061994661 -0.5540038256923877 0.1924570989245782 -0.6801485745429771 -0.7026549831756093 -0.4804011126045727 -0.13238970131903652 0.35874165321884666 -0.3980880162269531 -0.10245537565344935 0.45211177874157615 0.3728888912535062 1.6465678888285835 -0.48103900329888766 -1.2510124092154973 -0.08243548088809674 -0.10493649020409025 0.6977994548555208 -1.0169188656970551 0.7331842621127179 0.41483489666798884 -1.4310672778209805 0.36275360259171724 -0.1410139526529378 1.1148881805546929 0.8448483008486288 1.1049976609138583 -0.14121784113362776 -0.6829618756220561 -0.06369213884232257 0.353337708594456 0.06663348085883364 0.8101206675594563 -0.10786600514605939 -0.04756695114568582 0.25392549064270464 -0.05095078001625419 0.39097557355188794 -0.6059403666606791 0.2650002603996275 -0.8588674979458563 -0.31844835291643864 0.7077480814278004 0.8788197726980671 -0.1239297434771414 -1.3183740264896069 -0.5229860371546348 0.5707257664327591 0.5090066921564073 -0.11246365181907084 -1.3212030112979698 0.5105079592922821 0.12137792358956517 0.4403723788174609 0.644353933441871 -0.5043113435632669 -0.5534752068824274 -0.892318064294818 -0.2899764707289909 -0.3296712182154516 0.4331514355889895 -0.17264520640497363 0.09739518752172259 -0.2644472161096349 -0.05539364627895622 -1.0950706316081333 -0.5313989438086784 0.0772361960753444 -0.5474017469948379 0.25068178689442633 -0.025174956603730838 -0.12167977110070011 0.9752703369183331 0.9516488408446512 -1.5010275090602019 -0.7622009610600422 -0.33304322001147807 0.8150805826678931 0.5032070547554947 -0.4508650508186687 0.3097747364018407 0.2853186602420054 -0.9750039706308242 0.1788107117857372 -0.2264385980763455 2.1295992399671517 0.5861765537701904 0.6076650626612696 0.3396105888163506 -1.0033557823006398 0.2717946576136416 0.06228908784720885 -0.9120515381680033 -1.4019407927686693 -0.5158072600180085 -0.07089354168676823 -0.17704976323057248 0.15690902661663947 0.8128046421495227 0.21740991221517397 0.2192492794167579 1.9444229909747028 -1.9430644200642793 -0.43095005706229655 -1.2112374433104045 -1.1620992910228567 0.8361626001491729 0.22506794298106397 -0.8642938111677502 1.3547109132474282 -1.529505561895237 -1.3124597178877009 -0.7395436286718425 1.183564145764852 2.1535979168745945 -0.049505048708663124 0.19475540804045166 -0.06665893478013035 0.38671088473826304 -0.010762894943458882 -0.7376158155215103 -0.32425801761968026 -0.016178152421759236 -0.7649666967306374 0.5777564480272953 0.015443331138263726 -0.1593261206985643 -0.3218373239933296 -0.1666259967940872 0.20672954968319238 -0.06992654978780861 -0.14250699225869648 -0.3369878064815229 0.4523727457124467 0.15740962040214182