(written by ASE)

835 atoms
3 atom types

0.0      21.015593120147354  xlo xhi
0.0      21.015593120147354  ylo yhi
0.0      21.299999999999997  zlo zhi

Masses

     1      12.010999996910238 # C
     2      1.0079999997406976 # H
     3      15.998999995884349 # O

Atoms # atomic

     1   3      2.9354580470463647      1.9268987176195225      15.527593500039227
     2   2      3.6639215513296355      2.5026208911379602      15.184642199958553
     3   2      2.9399553839886581      1.1695366711764337      14.832808799972833
     4   3      20.264495822036874      5.6759544366739263      20.007111299971232
     5   2      5.1849881502224822       16.37190360190661      7.6280624999495394
     6   3      5.3642511595566065       8.241727185070534       10.51913280005072
     7   2      14.120881391627366       19.55767837861789      10.931117400007818
     8   2       19.11023538554219      18.481953213602541      14.850743399999173
     9   3      2.7252811002602573      6.6930250812679812      16.848789899950333
    10   2      3.0623712138686074      6.3919977254147939       17.79154920002852
    11   2      9.7011130181749543      5.2020528118227203      15.758592000031262
    12   3      16.300513632078925      16.132493965153003      10.357423199993589
    13   2      16.640209679340696      15.355295300397026      9.8041769999780666
    14   2      10.268534032435509      7.7348941257859636      1.3182633899526375
    15   3      13.777528631270481      20.319976987870554      11.559914700008369
    16   2      6.2569935552439926      7.8724621984493073       10.20943079995509
    17   2      5.5782109130253987      8.6662421661930846       11.45959170002801
    18   3      7.4353798926688128   0.0059986909322960746      12.638653200035408
    19   2      6.5167673017730214      20.848918451103877      12.214293300047629
    20   2      7.9453232597472132     0.70150890459953197      12.014669700001759
    21   3      6.4565786430877221      18.811645838489035      15.557008799997927
    22   2      6.4669813617536818      19.655148699563302      16.096346099950956
    23   2      20.047677947844456      6.4407539015204094      6.6487098000429565
    24   3      14.338329733652698      6.3609366788472688      13.547502900048377
    25   2      12.358240549883988      4.3083016676446437       10.08552870000414
    26   2      14.847684664163998       5.599835958361715      13.077837900011614
    27   3       1.242013147168668      2.5837200650049037      1.1456247600291014
    28   2      10.227763781723787      17.577862397552291      12.715865699975128
    29   2     0.55738606854085204      3.2994481198817813      1.2701062199495239
    30   3      15.192865781120906     0.67623975546389725      13.930647299965644
    31   2      15.477101678076966     0.11296238571959945      14.704454999996019
    32   3      16.275967419330136      8.0448531087299511      12.783450599981045
    33   2     0.33948168818388741      6.0975902814399445      7.4605592999849524
    34   2      16.271638207136291      8.9299878597861522      13.360616699974228
    35   2      5.2384097879139029      12.995475364442406     0.99187710000683116
    36   3       4.923953468027622      16.097145737447573       6.667049099984629
    37   2      5.7335371618107427      15.809232111763492      6.1107996000264633
    38   3      8.6358326028815089      1.0586878236959136     0.11379290700728845
    39   2      9.0994996339201428     0.80055539496983263      20.478799800010087
    40   2      11.682505168665436      2.0764225610515856       12.73942350001175
    41   2       2.149895176238716      8.3770465892102628      5.7757718999506045
    42   3      4.8767944770847356       3.685168316008177      15.011196300016943
    43   2      4.5468286494951302      4.0534665854045295      14.110696199964448
    44   2      18.667436838419381     0.58008080757736602      8.1966234000301235
    45   3      17.796319488068313      4.1715742187235421       9.066771000051304
    46   2      17.766876642086547      3.5461711831404279      9.9619886999942295
    47   2      17.530346141479598       3.483986043001718      8.2818447000296072
    48   3      13.825213012091622      4.7495450607655947      16.207106100014855
    49   2      14.144271746769922     0.16881027365492929      11.105266200003891
    50   2       13.93178308477135      5.4580647671970342      15.427547400051317
    51   3      12.848282150271434      18.640389770076776      14.725989300030554
    52   2      12.003350228887822       19.10388867636696      14.440164600044644
    53   2      13.070543063103049      19.096911499463758      15.604635599975413
    54   3      8.2630369965428621      7.9170362713716811      17.730247800006694
    55   2      20.667722007215065      18.339236320740959      3.1617507000255598
    56   2      8.5731851197632665      8.8251620812797569      17.326208099988378
    57   3      7.6941869219729666      17.855205179926902     0.18472914896386536
    58   2      10.430858473652028      3.7783514559206268      12.724577399982998
    59   2      20.659210692047854       16.75741364212368      18.591491999976142
    60   3      18.255047854713091      8.4412071949596026      17.143901399969334
    61   2      19.084155034424459        9.05799383752578      17.083814100012574
    62   2      18.390241165160312      8.1237456453390937      16.169660699956069
    63   3     0.69237762941585856     0.49915816469104679      2.8936263000478388
    64   2      1.4939039447791234     0.59461519171870103      3.5372696999707842
    65   2      20.886305191318659     0.37781623157491456      3.4672566000474476
    66   3      10.712383359104944      6.6285492416546523      18.941301899959775
    67   2      6.1301644507435062      12.304230475625467      3.6798944999511263
    68   2      10.597217908831309      5.6208725671309292      18.721379399984766
    69   3      2.3651578965342179      13.640738135660532      19.107676200020595
    70   2      19.269407487804003      3.0975303011926809       14.01819029999999
    71   2       3.209753568420934      14.084062072556653      19.580898299984902
    72   3      3.5023326557957577     0.73078572731218738      12.871568700040616
    73   2      3.9598631336734282      20.850557667322548      13.086783900037638
    74   2     0.62570776173558718      18.915694039942036      9.7511826000487787
    75   3      8.5789433923713947      18.593125701179225      13.412950800036061
    76   2      18.505784896196658      8.5401275918472699      20.965866900022263
    77   2      7.9166579907139063      18.395474047890186      14.212808400035096
    78   3      13.336495394058856      4.4256317240151981      3.5890500000477199
    79   2      14.237454886682372      4.8133694170180377      3.9166865999569755
    80   2      12.646889721355649      5.1544314777953657      3.7822196999996049
    81   3      11.242922007396061      7.0239155950265202      13.803379800024658
    82   2      12.229057699010161      6.7985443744010778      13.707359400000596
    83   2      7.4863427060322287      14.727958830154286     0.15559245295404461
    84   3      12.257344687280753       16.63997850779846      18.450592499965111
    85   2      3.1901880512268774      18.680403459368009      5.6428598999590136
    86   2      12.730889047107095      17.480160905169576      18.812096099965292
    87   3      10.467110371788548      15.169769644314369      1.8164214000526095
    88   2      2.0068231198316044       6.432725944965636      3.1649670000523891
    89   2      11.312630729844198      15.355652565421893      1.3205872200128042
    90   3      6.1539541021767441      1.1665608632023523      4.7419976999654807
    91   2      6.7260195624951313      1.5720125996869747      4.0079144999481029
    92   2      6.6650953580222536      0.3357409125571435       4.997789399993172
    93   3      18.373701893438326      2.6144448620755316      13.920700199958739
    94   2      16.696006079038362      4.8071067702695043      4.1486009999813032
    95   3      18.201794341665185      20.671735985544924      6.7971708000114068
    96   2      18.581525093746158      19.710083459885823      7.0248251999473723
    97   2      17.169382314116255       20.39702015224676      6.6676881000244723
    98   3       21.00384540359854      11.809838647411269      13.391906399971806
    99   2      20.252874199075833      1.6796271473703746      5.3965892999825691
   100   2      20.391829300782703      11.935616972260187      14.170698299972617
   101   3     0.22020138468935513      14.743636462606057      16.045353899983429
   102   2       1.079657182502787      14.180964972358002      16.088742000019241
   103   2     0.29370132005235289      15.570452942737866       16.67723969998157
   104   3      12.750370501874459      20.325819322800431      16.817904899974444
   105   2      12.878040230117188      2.9131184715553773      2.9615946000351192
   106   2      12.861311818013847     0.17209311945073361      16.333265999986047
   107   3      4.9623909878939712      5.7341466140107507       7.961663099982502
   108   2      5.1777167549832583      6.6627626271768827      7.5661007999539027
   109   2      4.8644793394969943      5.2066131955587984       7.036241999971466
   110   3      20.979761533829283       16.96859933740048      17.608795200013489
   111   2      8.5982777380232172      14.925148140358859      20.295321600006627
   112   2     0.75714138271730869      17.575067323622452      17.749183500013913
   113   3      7.5250113973358754      7.4974389392199523       3.767352300036884
   114   2      8.3441782015706814      7.8367567057190106      3.2897850000356299
   115   2      7.8621225265771333      7.3962908894415769      4.7098559999502303
   116   3      15.144824135274899      18.615654417051573      9.5554356000035501
   117   2      18.640368754548806      1.7003254050584145      10.500537900050567
   118   2      17.968731413981867      2.8074730849396468       14.85329940005219
   119   3      5.1912087658101385      6.9990961794696842      15.279555000012818
   120   2      5.8034350245352995       6.213659402249605      15.445971900047937
   121   2      4.3624378354907343      6.8074129546980942      15.916254599977858
   122   3      17.134118148837519      2.7731125901969378      6.5722002000513413
   123   2       16.43747225243732      2.1061827424816162      6.9168981000352971
   124   2       17.94912386562693      2.3310495888617129      6.1672446000007355
   125   2      3.9477581519950142      14.622481568287004      7.3349531999986599
   126   3      12.974291646662587      1.8977185665244172      15.343774500028699
   127   2       11.01032142279721      14.178548179190875       3.130631400031517
   128   2      13.502791782444353      2.6329806152509274      15.791947800005222
   129   3      1.3728730423584237      17.189473221083627      10.691045099960519
   130   2      1.0797643620417283      16.873461747300432      11.671164600042545
   131   2      2.3383840308947224      16.924781825793655      10.720077000044212
   132   3      17.149648672173747      13.388193753104913     0.55592999999142223
   133   2      7.6901729436431108      16.819325579454343    0.046842107993651128
   134   2      16.349816213590763       13.97877395096579     0.62366187004160156
   135   3      11.395789431748465      18.606155368921637      5.2486820999990158
   136   2      12.083881981715633      18.688830712213466      4.4676749999522558
   137   2      11.836318294714744      18.875154960877488       6.136380899958815
   138   3      19.257470630874039      5.9237913263779278      10.907005799986299
   139   2      18.696648512858914      5.7484792484749363      11.749420800043799
   140   2      13.282926647146958      19.316104135662421      8.3134964999682222
   141   2     0.31716312822086989      2.0172678695535042      12.065299800028248
   142   3      20.340067894942862      10.442753299316177      17.122004999993759
   143   2      20.297616396746658      11.210957290292509      16.438296300050752
   144   2       20.29490538524351      11.001831123157968      18.007573799962561
   145   3      3.3639449751280175      17.601946267321548     0.76587983997495046
   146   2      4.2579903376421129       17.75716743804729      1.1879201699531718
   147   2      18.729180651001595      6.4173425307449463      19.666140900024711
   148   3      17.753090413028588      18.675296670330649      2.3531600999783291
   149   2       18.36180706766924      18.780185495525888      1.5391656899745594
   150   2       5.222122703262122      4.9698935545704916      3.2618180999474382
   151   3      20.369615818774349      13.611610523542758      9.0350552999917095
   152   2      19.372531003193007      13.448571552171568      8.8335147000390251
   153   2      20.841668071497562      14.404739007925652      8.5211502000078223
   154   3     0.41404501249424819      7.7650725175553061      10.512998400029836
   155   2      20.711308347384595      6.9494783641987929      10.514063400025337
   156   2      20.869618810376199      8.4601632599536494      10.921362000044773
   157   3      11.081732408152865      14.703433632933468       6.830228399952591
   158   2      15.493010482070972      13.824183247968024      12.875913899971209
   159   2      10.170286134541636      15.197173977681842      6.6523095000511479
   160   3      11.171553053201283      17.557225085073757      9.4697456999677563
   161   2      11.447592868854121      18.506415363924638      9.0127116000201575
   162   2      4.5420160786888477      1.4695699894190026      11.686266300023419
   163   3      19.098487668993577     0.15900103537932606      20.699276099969993
   164   2      18.830917137347072     0.59968625434802214     0.28223991004848653
   165   2      2.3096346995396608       13.43728617860249      4.7854922999902048
   166   3      16.647460058947011      15.381585807319146      19.421978999998945
   167   2      17.609343756043405      15.609058587247725      19.603646699978142
   168   2      10.578156765882598      19.324909669270586      16.743120599952142
   169   2        18.9312035477503       17.91860922436069      10.698564000050004
   170   3      8.2664835538335861      14.360396106440573      11.519423400032643
   171   2       7.880279998989816      13.407801301459848      11.390451899949955
   172   2      9.2400519206848042      14.268894214012608      11.752466699960737
   173   3      7.8387531870674838      12.571569835624802      14.842287300049785
   174   2      6.8635456038926597      12.769242504546749      14.885781899968153
   175   2      8.2167396448701879      13.526413309024205      14.890425300037878
   176   3      17.855289242353592      8.5781447997900298       9.225690300037261
   177   2      18.193535213568175      7.6755250753149378      9.5298969000454932
   178   2     0.97089098027677445      9.3530737804944231      17.065091399983181
   179   2      2.2181117914787878      6.5121228557151873      13.061415599976756
   180   2      7.8955793507838141      18.880366827974452       7.743167700050388
   181   2      6.1869906145647731      18.074250707010023      16.181460899961525
   182   3      3.9606196949889778      5.6761435770552833      10.663802399967118
   183   2      4.2158750890477421      5.3542477371813293       9.734994600032076
   184   2      4.3209320390963732      6.6410955506796894      10.654068300044399
   185   3      4.0746292876563786      19.300867830662209      5.7778806000076388
   186   2     0.44318733549209488      9.2468189416786828      3.0121608000469879
   187   2      9.6881884283872051      17.436007143960918       6.886290000051857
   188   3      5.7902582476773468      18.990488535899569       1.961519129949969
   189   2     0.82698250329597733      1.6346453718202045      20.883861900049606
   190   2      6.1576738621705802      18.964471231575622      2.9486867999535087
   191   3      9.5311178854285288      16.745665925575071      4.3073712000040532
   192   2      9.7519497379508007      16.416309550185474       3.380033099979844
   193   2      10.455824998324404      17.137669784082906      4.6620375000352388
   194   3      13.953702348338748    0.085862568209751841      1.3858674599735767
   195   2      13.704016086506751     0.14968734484201202     0.39252705002546773
   196   2      2.5500951159448366      20.067222449405609      8.8720250999869563
   197   3      13.669046139564035      2.7304509360914069      20.170247999964904
   198   2      12.807469868398837      2.8620926113981762      20.640530700001186
   199   2      14.279948416039455      3.3416684464308153      20.795956799967865
   200   3      15.058681219059439      4.5852451537285726     0.91343559003762931
   201   2      14.922353066533958      5.3492039948328127      0.1212280979638186
   202   2      14.200677598772536      4.6737838475831879      1.4746799399863939
   203   3      20.236944379448918      15.556918900750107      4.7742246000356756
   204   2      4.4033341796850882      13.601249836142616       15.01911990002176
   205   2    0.085218650426342357      11.826482997192853      8.9437422000519948
   206   3      4.0721284320625593       5.030691665455798      5.1876789000099652
   207   2      16.391637243849114      19.325729277379924      16.537298699977129
   208   2      3.6783382482205131      5.9676088379847521      5.0527859999905793
   209   3      16.693400145489882      7.8252401606076969      5.2488311999622237
   210   2       16.25608666827209        6.90080625051987       5.138348099997132
   211   3      5.5653073388705572      18.989059475590228       10.14896010001697
   212   2      5.3266332477995908      19.167019518097639      11.178921600016073
   213   2      4.9883242297912247      19.616290867878302      9.5544131999823438
   214   3      2.6890922489175231      6.3935528793117076      2.3595500999513352
   215   2      2.9489290422403371      5.4239354439965597      2.2066161000230515
   216   2     0.96237966510956341      12.614210474097426      4.2810444000429433
   217   3      11.362626825877802      13.705823427578808      3.9927915000332592
   218   2      12.082810186431157      13.055327773735746      3.6006371999689915
   219   2      14.683994209326983      15.792945027111713      12.574348499964582
   220   3      16.719606590090248      16.097334877828931      3.1493540999545528
   221   2      17.117431767895056      16.880838220494319      2.6212418999817557
   222   2      17.411923274296598      15.329698307891732       3.256152299962864
   223   3      10.863632582766646      3.6496939948201144      18.572897099975989
   224   2      11.828311353792879      3.6684399039048361      18.905326200024536
   225   2      10.779128882874796      2.8951081082582344       17.89787880000052
   226   3      10.705048917071933      5.0123870839275737      15.592089900047554
   227   2      11.085410136985825      4.4549274607764824      16.340976600013033
   228   3      13.079810939690747       13.85871186745918       10.38500669999406
   229   2      13.154164108091782      14.510447441335169      9.5710059000207348
   230   2      13.171438925706283      12.921017118086707       9.989593500035026
   231   3     0.21752189663557109      14.233167705754342      21.183020399966423
   232   2     0.77472092637934531      14.911256833346235     0.54348654000187013
   233   2      12.200140242801712      15.703859927850873      7.6415453999500169
   234   3      20.312726608264235      4.5241528245072455      14.101111200004937
   235   2      20.590321577813988       4.321919771954156      13.104931500041808
   236   2      14.555694013356275      17.998300353551198      13.533828300004041
   237   3      12.508943368139469      6.2051060558165796      7.3577868000468483
   238   2      11.855337406502578      6.6171377746029396      6.6772518000500138
   239   2       13.11234307783343      7.0430818159298951      7.5242675999902291
   240   3      11.205682376401759      3.1087946591288524     0.48844307997956038
   241   2      10.307602020029837      2.7770214904671926     0.14069757601588104
   242   3      7.8061159709701382      19.721116646279761      8.3405475000241207
   243   2      10.569288185585583      6.4431706946875362       3.070480199953781
   244   2      7.0625632706972583      19.532186464172195      9.0071097000502007
   245   3      18.089823261507135      1.5066351910169595      2.1182445300366632
   246   2      18.834889084411113      1.4629311635969728      2.8997820000026908
   247   3      7.6603938482693881      3.8462738528246798       18.27067139999555
   248   2      6.7352033766561368      3.8138467926366597      18.752328299975272
   249   2       11.09266051659214      17.674429047961681      10.527013799974883
   250   3      19.003665312757519      18.718000355492119      9.9984756000464294
   251   2      18.002902768448156      16.022603428665182      12.821875799980388
   252   2      11.414556356466093       18.98063222274477      2.2156472999976637
   253   3       17.65831008805835      13.465110823893554      8.7583896000096537
   254   2      16.885146417160197      13.960784603301553      8.3265320999727148
   255   2      17.300477583911864      12.700101203137743      9.3466742999941559
   256   3     0.93120093118664338      9.6656807281477697      6.3796268999522905
   257   2     0.72907085500393809       10.07392964014651         7.3099683000255
   258   2     0.60200847737693919      10.470094585994804       5.875967100008082
   259   3      18.713902314840507      14.076328334232961      3.0313307999660069
   260   2      7.4395830112750874      15.214721997999455      13.183421999954859
   261   2      18.374017127302317     0.47048448942556503      19.978185899982815
   262   3      10.134055252038022      18.544600696720781      17.211635400044816
   263   2      19.343760656205035      14.694123725184891      3.6509904000030313
   264   2      3.0755690063594678      16.718492763644893      1.2410445000433616
   265   3      2.7664296315248147      4.3469493433153819      13.092918299952164
   266   2       3.102132716089637      4.9331162666606563      12.326096999960344
   267   2      1.9844520208912557       3.901502831588155      12.711669600007745
   268   3     0.22578943096475382      5.9825088934880677      3.7769798999706881
   269   2      20.852743289052377      6.9343891683141212      3.5401665000308702
   270   2    0.063177706524902053      5.8879807556929675      4.7865360000517372
   271   3     0.77305649135921184      17.024984173770186      13.615385999980711
   272   2      15.280017445827056      17.589988394758674      9.6935660999837339
   273   2      3.2176554313881365      15.725653097935639      5.4565700999504125
   274   3      11.956506471808924      19.565096882972654      20.615630999976613
   275   2      12.653656742349527      19.884975225865222      19.948131599984272
   276   2        11.1268528865864      19.865851036122727      20.162537400044275
   277   3      11.137297636413237      17.187371661780492      12.404502300031163
   278   2      19.013647719499893     0.43749421136697064      5.2211625000131647
   279   2      10.892276836167046      16.208150100380745      12.249416999965195
   280   3      15.595587592053754      3.5605878799263682      12.674778000040213
   281   2        16.4974717708462      3.9594848530156539      12.645384000015484
   282   2      15.863872653854932      2.7158661145570187      13.144570799999858
   283   3      6.7639527081161361       12.26812568660449       8.065628400051704
   284   2       6.984280186393061       13.24896544869493      7.8763139999537781
   285   2      5.7946925378258554      12.182739331704578      7.6724304000322627
   286   3      16.346853014912476      13.275571189585978      13.051873199991542
   287   2      17.134349320379751      13.902235160834923       13.25699220001845
   288   3      5.6128446105761558      16.200584486805504      9.5410581000111065
   289   2      5.5406350325341984      17.224548245981008      9.6789116999988423
   290   2      17.199098362801127      19.523801242487615      2.4418959000374167
   291   3      8.3412780496861814      15.259695367212512      21.226025100020873
   292   2      1.8491347183358062       3.589904632425498      16.003435499964812
   293   2      20.000813175132652      16.585611168410136      4.5168780000422055
   294   3      9.9397240624521341      8.1970900653543755      2.1373059000478212
   295   2      2.5700809450624833      12.783911388507832      15.948311100044521
   296   3      20.830361682400511         5.7387280132748      6.6728426999984434
   297   2      9.6201399378955834       0.735831571244982      18.125064600006535
   298   2      13.670517231139193      1.4592114036031367      14.691291599962286
   299   3      1.6773952914160477      7.4015237721714495        13.0579862999721
   300   2      1.2946824266081578      7.4406968377204405      12.072307500000772
   301   2      1.8146586378219804      18.640620941619012      1.1698535099533398
   302   3     0.58550072899937866      10.949376202691424      8.8636116000118612
   303   2      17.799114561893212      13.863482407104586      1.2180852299912366
   304   2     0.16477191728324603      10.461204990169819      9.7145892000076639
   305   3      19.676731713633806      1.0666464288090043      4.7576958000119047
   306   2      13.281812820701603     0.72215252172596212      1.8542374200472924
   307   2      15.519111848716674      17.691956052646383      5.7516176999547923
   308   3      11.285961942159366      1.5259380133243585      5.6833512000410948
   309   2      10.938700281427291     0.56879333242400831      5.8650401999542652
   310   2      12.812828844716279      19.651933313814812       2.067186300029213
   311   2      10.314768337314398      6.9955235286963262      12.071945399953377
   312   3       3.623025207135282      2.3492070613793343      8.9970560999480256
   313   2      4.2982562141084886      2.3098238398160791      9.7417467000524773
   314   2      2.7210989971819535      2.8461207607153223      9.3269930999581749
   315   3      19.810874244534393      8.2310722794393083      14.399715900043216
   316   2       18.20330746440122      2.2731306142279997      12.113629499953843
   317   2      20.572941682244824      7.5351619288266924      14.245525199969212
   318   3      10.986300599821737      6.0365609990124032      3.9672315000348757
   319   2      10.370270518676048      5.2772045728051191      4.2328637999741998
   320   3      14.027719267347823      15.030814542607496      12.632433599959578
   321   2      13.742096341243297      14.777429536309636      11.626434600018785
   322   2      19.340545270456545      11.507991683448747      5.2079778000454624
   323   3      9.3742154672183009      3.8406837050699405      12.471277799993704
   324   2      8.1448873320629716       19.40489501669218      13.001903400045222
   325   2      9.2933264492606842      4.8456073369296391      12.160319099965069
   326   3      11.938748295581984      3.0094959815834104      13.078008300015147
   327   2      10.598142594895307       6.615624651866904      19.977696000012536
   328   2      12.279432075701537      2.8675356500373743      14.057850899998368
   329   3      9.5250864102222295      19.657355336821105      1.5214866900066988
   330   2      9.8334482080034871      17.763493131589613       16.51163219998983
   331   2      9.0641303906867421      18.801074995074629       1.286147250028322
   332   3      18.778441201352557      17.953179875117666      6.8764280999935421
   333   2      18.948583443214524      17.793923710429155      7.8574848000418278
   334   2      17.853692057295802      17.627900524746771      6.6749726999894454
   335   2       4.254039406210981      5.1526871836220334      19.297267500004615
   336   3      17.132121667489042      15.850674861364071      14.630373600028181
   337   2      18.330220631223462      12.975006176817258      16.029016800003522
   338   2      16.750772714717371      15.107038098874373        15.2843048999651
   339   3      3.9291383364978629      20.823111302794196      1.2336150599530731
   340   2       3.681994961420564     0.10732348177626684      2.1668490000357599
   341   2      4.7189463571776002      20.109568869542208      1.4243799900531688
   342   3      20.096371077051352      4.5822399238894072      1.3343470200057295
   343   2      20.320082065825215      5.0641064586065401     0.50632016996083617
   344   2      20.455653657035146      5.0215919137214868      2.1819293999763092
   345   3      1.4513074390516558      18.014377282293651      6.2030925000130921
   346   2      1.2735218259405876      17.257479680414374      6.9302745000468589
   347   2     0.52745566077809458      18.154803475470747      5.8435485000003826
   348   3      17.082335727364768       20.07667946626972      16.393544999986666
   349   2      2.0869282560879299      12.664500788467048      10.568165400030777
   350   2      17.946076604626885       19.52302366553916      16.208022000047148
   351   3      15.431056513579433      17.699668775232229      16.940912400039785
   352   2      14.844343184827935      17.007036857266826      16.367026499981694
   353   2      16.048662764150006      17.118734734616826      17.508749100025579
   354   2      18.232540154473657      8.6477064130176888      8.2437389999970083
   355   3      17.733650989317166      3.6215541156650612      18.321471900025575
   356   2      18.802924367307558      3.4559302262733578      18.256975500017244
   357   3      17.343307362765845      11.089592240064126      2.3902859999640151
   358   2      18.089739199185381      10.473499112124651      2.0114484599472982