3.7671865923214476 2.0218662759340864 16.14743901920836 4.3967688731316965 2.71811552950897 15.976260525575 4.015553663285417 1.2347059845462802 15.543879991426174 21.107013841313627 5.228246928464902 20.777390876762677 5.790954033661819 15.642467194872877 9.38463404595084 6.168040938538478 6.742699728474241 12.69451675099306 15.206067714826473 20.20372893682977 11.357234059929585 20.481660812308732 18.471235177757595 16.5989195359013 3.836072292413107 7.417039312577138 17.14718283135224 4.113835923165849 6.826923038419921 17.90207168119199 9.89236298073725 5.857831312334229 16.62800273988749 16.04685811575595 16.92705563768428 11.375692609454985 15.97588828411824 16.141281262228713 10.707485545622804 10.88772612082218 6.321947007966285 3.2109569090839964 14.827075438425373 20.847296560507047 12.061193128083497 6.302211901580691 7.666249710231284 12.418713171300778 6.042484105478723 6.746577769413609 13.687682194341741 8.20074638095928 -0.254876038809602 13.87565782082908 7.262378244940418 20.663438723693943 13.551826680978253 8.744620592114957 -0.20723544152136 13.028074539078476 6.159496209505584 18.053628633629952 17.641696142894077 6.143361540261095 19.064583853717313 17.723837424352787 20.35100826710359 6.172659256273214 7.776243906115699 14.730210640363344 7.692584216002855 15.083486710361733 13.177719810814764 3.389380441240199 10.838867852327922 14.983919481384795 7.6492401684104525 14.067351655765876 1.251681877421868 2.1271348980707994 2.2228745595262325 10.784486950695497 18.499184832900877 13.878305572207966 0.6173866412183842 2.930690638028734 2.1885484292592174 16.131403193740525 0.8487652009522996 14.304909003070216 16.449307913110257 0.11666720233811088 14.85246777373011 17.696024468049558 7.78170765359969 15.707300300121716 0.508973945760437 5.486805423719641 8.61997228057679 18.468499097897446 7.744121781762164 16.33763757914088 7.465626286450367 13.028358452053972 1.8875228620474975 5.879015426424392 14.752360058570194 8.951811869395685 6.284472598259881 15.020373907438492 8.080180107091024 9.590521426603363 1.3428747251512088 2.165789123919821 9.06114149861153 1.5476054233109697 22.64746676070117 12.27441387574013 1.1570694556321082 13.949767519669868 2.1312968519856637 9.430169481102256 6.303019476266546 5.790876220475942 3.9099064905147096 14.871365862602762 5.59617080493981 3.750505127716745 13.93354872806227 18.86728957245647 -1.1285982418375458 9.042529425773456 19.62209850605127 3.953870940535047 10.406218126617143 19.057959217622404 3.1448451439158873 10.287302754124918 19.803710275769337 4.33031851545207 9.507360161491945 15.201815329371264 5.261433200711777 16.418369811017495 14.86642367377005 0.6707496622571805 11.590898644881014 15.11854891130596 6.096839770402216 15.908617733398291 13.58158286386932 19.3681646377085 15.609474404061157 13.26290001264082 19.54879217577818 14.74180690811805 13.432593746565288 20.129814822483212 16.20818588066913 8.811788092940096 7.3836637650132655 19.949723564478354 20.971711432487584 18.255490759207667 4.184078096362656 8.920049368144445 7.378340922487483 18.98543522532624 8.237129303004334 18.23843074396897 1.1028336650760462 10.691605346526723 3.160885175501877 14.157694867627807 20.62873404279293 16.398739857585788 20.17181080920678 19.96347757084683 7.427666070097002 17.481832107099006 20.31812483536391 8.347880600156737 17.789568535827822 20.720553602127442 7.027376114415542 16.980006459143837 0.9220168516893655 0.23639014951619067 4.075894634344184 1.7646306048392502 0.40462015432254494 4.584155643077264 21.199998495377212 0.5697229102802869 4.618458639694423 10.635809086134971 5.555426138367505 20.319430835051193 7.225576814138893 13.151570374242036 5.297856080879307 10.709830456494494 4.669455719270752 19.902333231220364 2.491229103965126 12.541849383362045 21.234555962142778 19.392671585141503 2.444923949191254 13.982314461957106 3.21800636311261 13.038169222651668 21.648170900140855 4.1326688172070885 -0.16785776334959276 14.584191042477094 4.492134190071291 19.938936974468582 14.91110736999498 2.049340639725796 18.27272322529074 11.434531996332238 10.213948053493043 19.3187806044448 15.371189398315913 18.10017353713869 8.389142619262167 21.82128210506666 9.989478042829532 18.58658165899488 16.003694931244233 14.77521189850901 4.466302315419303 3.8094643889614304 15.651295836881268 4.615857155615249 4.228400066426211 14.147326786374505 4.85035034584331 4.438867909750071 11.950225215846084 7.123309257306128 14.323323388354986 12.787650722251161 7.393392516306931 14.678887586629964 7.61317480828614 15.169428219573934 0.9593819023237274 12.708224490061825 17.46498450082716 20.237729092939734 3.1513793484704524 18.230531654072944 6.399890583505809 13.584335768202092 17.37940051165818 19.833390748533606 11.084963619487922 14.653966336558643 2.3689383216531152 2.122634351644417 6.646219790223439 2.8064187740654836 11.465362842412036 15.426489336765316 1.8743492999844793 5.526138937650777 1.6208907229932799 4.134222977865544 5.3391559550481364 2.503557236278889 4.594365994899734 6.511150820955027 1.440938266887554 4.237760782381271 18.751835835206222 1.7850681329568123 13.556171601032881 17.981256061587388 4.487252989951836 4.304133326875021 19.635839894065278 19.987584937055065 7.075809564976096 20.228282151562485 19.27344916602393 6.75811304845506 18.710830389308278 19.65060757490923 6.8439052404727425 21.004481299037064 14.024932954167685 14.446955922358601 20.437780484651505 2.2243782467668223 5.814939422443543 20.67511701075268 13.496064069531744 15.307542418386925 -0.006174581452270275 14.00220729777353 18.698744108788453 0.7033744177302964 13.499325914161332 19.140352866170446 0.32383534596898295 14.915069533297457 18.8476091456069 13.124663836401318 22.774676598196038 17.590465623760117 14.232542740204885 2.7486855962631256 4.003212912617188 13.714813759503778 2.1520330144922664 16.87286401136885 6.396191302588049 5.004872611580898 9.110262649490508 7.222807085333498 5.55052601071635 8.860545414598624 6.729950984344928 4.237207677843823 9.68134413593502 21.173386385807376 16.905865214416885 19.430913611411288 8.631164760988568 15.163238916708117 20.922108681079802 0.858319398342512 17.436229374057103 19.90554249937301 8.660382560755732 6.976763894650442 5.8429626846545455 9.49143790121431 6.7794086246763445 5.351515633248066 8.828785016406462 6.7367186284571225 6.768544221480695 15.780371087778096 19.344448440488726 10.05026486241278 18.57908004726455 0.6962177076887176 10.408737591392285 17.86906837508488 1.957102571634814 14.004526971936288 6.019043408998136 6.491718555076629 15.342400622600609 5.838798627680602 5.4862186702369495 15.299605473427501 5.359156046877527 6.8242037830323925 16.012407905003347 17.491483045206795 2.480600243386184 6.625277527927217 16.766991811276824 1.8284710662033907 6.7301570841345475 18.251120602444104 1.9752561775939412 6.250518709449627 4.324978848453666 14.041561842295444 8.55659869832791 14.308545192215645 2.926177473247885 15.513467654102849 11.005266092677559 14.116209924260135 4.098067186200889 14.695560638998355 3.8669304782609144 15.529282658367519 2.4808883624798357 16.82117502535594 11.850676914400847 1.8676005834039835 16.65618373152932 12.64916428198141 3.354234117932862 16.553205340728276 12.220533502168205 17.25331581076991 14.277257982315977 0.4740505467153415 8.129257093729368 17.303280288339064 0.7372105352321958 16.536132707135113 14.73927482498844 0.964307266683815 11.319593508556038 18.44056626722679 6.2676376103425016 11.758987744729158 18.444183528840515 5.348922561405202 11.944496482918296 18.67873770778183 7.000473782692979 18.726435087665173 6.12686093873708 11.53138627909888 18.35080139661124 5.9639874254017515 12.46309402701851 14.389576058481303 19.39909432756495 9.090430802387338 1.7857558332752361 1.3831398942537856 13.310126307290744 20.74961577552285 10.109020126926925 18.09817983713298 20.5645528858582 10.933650621902979 17.520330706576274 20.651339824819654 10.393210706221266 19.030880228937313 3.1123528811646697 17.700710083674785 1.8775375375463461 4.061703191687536 17.984126737228515 1.979758827079401 19.459578306641003 5.457673849374666 20.18780247043398 17.974627219374323 17.548600026699372 3.2802506026367397 18.36925994613664 17.562265704586586 2.3671107633145514 6.200097868060602 5.015713881126692 4.7399060953162575 20.63697593131863 14.303638755387258 9.933925737290798 20.08863902879997 14.284073996786962 9.089084844577577 21.232490758128428 15.039025938399046 9.726583039756473 0.3164031351882189 7.396866769903372 11.743538672744016 20.44031467084019 7.141214702294081 11.604583250299925 21.360352543937395 8.397142655993923 11.645327916872228 10.407004670712219 13.971042065300374 8.474604631004642 16.18871786278641 14.091595720814166 13.907033359210013 10.273193330772301 14.717777355095693 7.838559649648472 11.9738804243526 17.49597938551502 10.508195461297179 12.56721017278062 18.172623922367134 10.166099253356103 5.002754831089605 -0.09174595226678842 13.387007837996006 19.322448339476395 -0.1159773989606093 21.549901258614884 19.06051653746095 0.37258215233212083 1.0873593563819708 1.1595111072213744 13.068730877169514 4.257521125475797 16.70682539412151 14.912482770631827 19.208096605182885 17.670962313020027 15.121099921967268 19.088935174778566 11.169632777958086 19.850503340249247 18.465474898943643 19.450009387837248 17.855783350890743 11.925909646789153 8.169614797431366 15.520929307710702 13.859335979326673 7.720281504056806 14.768732373490469 13.496533051706082 9.058640961368088 15.127596271458431 14.108537964744508 6.533016326186381 14.021315692553957 17.806500264462777 5.728398541394183 13.817853139018078 17.197973811138947 6.982303352261231 14.769868025392453 17.316981718230593 18.72672741287698 10.241506539647862 10.297058845186594 18.168562915288 9.528350794146956 10.719378344707472 1.6346510385389899 9.823782224211865 18.04784101504799 1.9480867573685052 5.368872179816726 13.529660438298782 7.841402985521588 20.716599851061275 7.565975853404225 5.3550256388488275 17.696598603177787 18.227959612820857 4.59538808161152 5.519478549551546 10.854300099840442 5.271252383545786 5.439577026010639 10.063795944519015 5.102500820088149 6.09979877452461 11.50148288207237 3.6004728931101506 19.123164564328004 6.530854381454455 -0.08292572249471022 9.04456939307887 3.567885992700434 9.626098877021638 19.65136467617722 10.3320663665948 5.868146817110586 18.51992099540748 2.49189787675185 0.8780187527237844 1.270054201525081 22.00113571739573 6.064768119466548 18.254155316693293 3.424491012543214 9.86897065461545 16.0181681838173 6.591277371817254 10.076368031685798 15.330007295455438 5.947894817338818 10.565630004710496 16.75029141914042 6.466181108695526 13.94310292545248 -0.6366653837841068 3.1743657841902464 13.746290244720443 -0.33071024609414357 2.209267767293198 2.410829155422792 19.77559027284076 9.787264706385836 14.188841172569266 4.047963906732603 20.990260413553326 13.430347679470252 3.9160957933805243 21.58959229258924 14.973986733360588 4.112159785080883 21.627924750399366 16.13819607456165 4.803435303936891 1.4175858988882324 16.242968374756018 5.721879058253161 1.0251950331027961 15.545886309786345 4.871626994532894 2.203532725188177 19.86122683848669 14.830671669448323 5.126721751486581 3.8509787751561904 13.224315187741364 16.968725650250793 0.5905431951499993 12.948684058893459 9.755338166526531 4.651663839472999 4.031574767339707 4.88702559310017 17.273305387303907 18.56941228468414 18.772954754464973 4.071501343930767 4.0812279921653545 4.005038367896673 17.67905698741028 7.167538692770261 6.008343044410549 17.764922786495685 6.209443862602117 5.678059719309189 5.588292745634562 20.07884718573397 10.062155558438372 5.638110009068274 20.47307402209428 10.969676023904814 4.577945309620672 20.1894449595737 9.923393617429433 2.9504026107644727 6.386447829880838 2.286788627958094 2.9347768818168 5.388277105927113 2.332321960050432 0.005793927759197755 11.919516347192797 4.596258748069708 10.452866080020687 13.956636110617794 4.898962556425472 10.900666243327567 13.353564992541646 5.5545428535548504 15.340945305718808 16.1314620793947 12.965308740903064 16.49967407496326 15.534986154586374 4.207405227653045 17.1438410704777 16.246856930990774 3.9184701470793026 16.83914987129346 14.591745230684367 4.078088124962276 11.11332757726952 3.3379269978439985 18.36193709442792 11.873450941153788 2.7703639292365594 18.13745446540994 10.338939163660882 2.808305218058224 18.140169514679314 10.776838124829723 5.519200945753283 16.401806117721147 11.096320138507766 4.782495144699746 16.980010665261993 12.955071049312583 14.2652810608682 12.669170682988032 12.98389347397313 14.380263712885032 11.685784464350881 13.13754297019345 13.33826944386918 12.908959375973865 0.1402866588403069 13.41769146994036 22.397175390681063 0.2485689646354336 13.115574415067288 2.051689756715641 11.964067550695825 14.554188801673929 9.608809628343467 20.880590088766887 3.2920340426493655 14.422360646444329 21.619039325795878 2.960612962586943 13.786326180383547 15.582391209257906 19.17136247227185 15.052088038330941 14.171736993089935 6.0605388676611955 7.959708470881265 13.79340507723925 5.93996207849755 7.0711050218191716 14.773582027723757 6.898109485142639 7.903472671142263 11.798573625749622 2.60154086177028 2.014627546588475 10.911496997577975 2.1184745007886296 2.1895284547894485 7.464000621783267 21.368546062104304 8.157469631257367 12.3522018249079 6.190348086176158 4.94629821014744 6.710613356125028 21.027238501317385 8.690065136579078 18.401966720913787 0.8510070619291797 2.800900347045471 18.870463088604794 0.8338818518590718 3.7103892758086876 7.600186315421964 4.173390350129537 19.36794802262349 6.619414199218455 4.081766375289258 19.551168632536037 11.863084962959563 17.682996017062905 11.478008536646538 19.91056670750975 18.756651840494268 11.719549077844137 18.44609310648311 16.60642535374979 13.587359967155894 11.171788413512779 19.032110518497795 3.114924922416756 17.137020849888557 12.012175027099328 8.853325612784712 16.470203908106768 12.584259672723926 9.346690654070098 17.69908231594861 11.538088728379666 9.505530500094304 0.8602584188121963 10.299523630425716 7.214697689529699 0.9831296454296661 10.996147228516438 7.902366462067367 0.24058364931722165 10.676835562623694 6.547899675279608 17.794845111053895 13.174929051418593 4.047644241752786 7.590497522250775 15.896161314480784 15.43024119416002 18.545784415945633 0.026317681298947626 20.931902627204877 11.045972904186462 19.063456614051642 19.018482695673985 18.695402347913912 13.522402781421471 4.197497716337771 3.09194058975604 16.722327042583597 2.1573768876088257 4.639310470450302 3.0759510315879166 12.252670347935284 4.457726040500244 3.950053888308933 11.789149818022231 3.8159249864482745 2.639257123270626 12.587740235497602 0.3176965165210344 6.261273753573234 3.613139617935431 20.741111004612435 7.035855648617025 3.680279778992559 0.36905532225873616 5.962919071390255 4.549133400255514 1.0991448994536748 16.51919887544108 14.131328815970072 16.081619579252056 18.413405259237663 10.201176175713874 2.8585578147210304 13.833783811532024 6.161740173541542 13.271915826907131 21.314316580725475 22.097483162924636 13.83592893179133 21.4734193091344 21.27514500234333 12.778083906506485 22.171252166194826 22.100553629178147 11.310384212854576 17.983790247776074 13.219570686461962 19.767421991382783 0.7339234538936746 6.358079665981086 11.088292762008 17.03283950929504 13.37869023934351 14.986319071792506 7.284081814622786 12.499430681763855 15.315725421258445 6.400281752494269 12.570089260658056 14.137114331492958 7.268201615526705 12.010162399561924 8.175379282363476 14.130142690650219 10.242677943554167 8.365903816453043 15.09580012126195 10.517516219129762 7.446932194308259 14.22869834821076 9.600796973257244 16.68140782210784 13.239019776812984 14.05205610709341 17.405854891797176 13.238020823751054 13.329413462092779 5.795940386735161 17.224573302354315 10.210328688820237 5.646370825125671 18.195040429076855 10.057629775303056 17.316466468756545 18.267373042996947 3.2436805083337665 7.902482130316645 15.687466349959468 21.445772494498314 2.15789634320103 2.609793265591366 16.54190981042169 19.799950006138324 15.795445815247398 5.066157856165574 11.00204210311137 6.920622732569938 4.008455838898016 2.627545187266643 11.601022771281295 18.124465972545764 20.73502895775959 5.286943307324869 8.125816489078172 8.609374965884015 2.0270839655059807 20.58247515531877 15.040561171525802 2.3722990100593573 15.114542583762848 1.1725143214990947 5.872182587480785 13.835083502042073 0.9041093036423352 6.585733708088308 13.140916276954162 1.5774204918562136 18.329966390327982 2.7873987077663243 1.0990523648542538 12.10024483209821 9.52060102144545 18.110684626409277 14.85017964545352 0.5509720355430792 1.027682951991773 11.486538544265887 10.250194276698041 19.792824841982913 1.4256637488058652 5.618702979898809 13.857207683539992 0.18117223037081998 3.7315060920083623 16.984820361372805 17.099226775202336 7.016574802992225 13.210481265127934 2.02344146718332 7.127458592866526 12.769669567136411 1.6635975436851234 7.950469732352715 12.673336843021053 19.24203156646144 3.5394778706782035 12.29291869256524 6.824773712042462 12.5893091175696 2.725108200942485 1.9458701331005581 8.931193478197436 3.6013835176908153 2.185284481570551 9.250744892825045 2.0272963744728334 2.3931129857518365 9.505728187647613 22.51875323596572 6.10875570313674 16.372594627131214 18.55598845859087 1.5622195808422457 11.80962730426227 22.50923058446167 6.158232270999857 15.355895952702525 12.755492845893308 5.538277794647542 5.531100054015185 12.072070149633612 4.867233704119476 5.797988766276888 15.123341782944147 15.461719782435763 13.700645450496985 14.234896063312885 15.047892435470835 13.435165787817375 18.903079431841597 10.909509606749502 5.705231242593702 10.025087039133973 3.8243435319365027 14.335449626997285 9.428339819704615 19.759291564988207 15.001294955485156 10.373275809223285 4.318267986936569 15.100401614524065 12.247252867751005 2.1399845890358438 13.870757693177925 10.860045657240851 5.393440115962987 21.208925981162253 12.854456496914928 2.483306880419246 14.497656470604966 9.60777912939537 19.74621053752461 2.8389804377662675 10.645462127301839 18.503904097471345 18.304641352913734 9.109032359930024 19.128203493878292 2.206060602199631 18.945289930591095 14.035237943648655 7.848275782587671 18.348938086268355 13.237852579024834 8.014205040762969 18.32325342575181 14.771546266536495 7.550938980998322 4.410914048488634 5.223262678450637 19.733602698353508 18.009273014621154 16.541165327508168 15.36637128996879 19.230283878453136 12.769326768506737 16.6361016203959 17.641281840255758 15.720377121467157 15.750850447503737 4.936054209379726 20.788495028693195 1.5769094485003206 5.286709867767239 0.5051695118887896 2.090209386783687 5.325351475261793 20.010836358218658 2.0131028287571073 20.890215790165744 4.375622614104933 1.9767682770708426 21.101346097099093 4.76147296615857 1.0800995964455824 21.08621879315285 5.067110541927794 2.642981640897319 1.6617552639330155 16.758068531609936 6.254911999863045 1.4152157513076093 16.739452252653702 7.202436855106424 0.892258565739221 17.170110381417857 5.837681903310318 17.935621782659315 19.286820415640253 18.58448070297621 7.225177232914121 12.663076017780716 12.63373834364612 18.730275273541142 18.902795518866103 18.159282115577895 15.123358607416769 17.0159540479598 18.97796936560023 14.87140371766616 16.87591765314974 18.033992371021014 15.608366091927182 16.191552786423216 19.260727761662626 18.8169675748441 9.934571376427668 9.386547829711592 18.75435950609952 2.889916528629342 18.39232419504231 19.684567772896717 2.788031728548727 18.764540415094903 17.638686665353816 11.885522500260068 1.807535113084402 17.675275687188492 10.97580854417553 1.5153781460035485 17.588206938310616 12.523024901557118 0.9873357635851635 1.050949094568907 1.6107224323523648 3.03017374464256 7.3130703809504745 3.2273313270633484 10.97225016821598 2.5577635840078625 11.645986174363562 21.759691916915713 3.8333509339665004 17.668865563119514 19.59667041874221 7.20452308971155 13.888427595549171 2.2487190525326866 15.609091647309004 15.790352206161092 2.710679112610051 5.554595430031795 14.986491522636882 20.04364197677246 6.316352870819473 15.314537192879518 20.58108503326838 11.529464083101816 6.63578441107965 15.09503460775765 18.574690962969292 9.094535973707103 0.9864819215995975 15.436975189326972 8.245457416952219 15.442802766031413 19.25714625205322 9.41802221186918 21.660269799015143 5.8273243373524055 7.618632246592898 2.6041654794993105 8.73467101961813 1.232447299096778 17.748657727588377 8.368938530702236 1.5932712481252058 16.90515858656676 0.9436867724264886 20.178835026526457 14.083467397478664 17.028995117300916 16.140387462120668 6.877709812088475 17.8063845962135 1.2474000491395716 19.131972175745616 16.69168126570264 15.96657383546289 5.9177790113454565 10.035286875661054 17.2329014163022 16.94898213162889 16.706541481146015 19.72769520540411 9.920588136619717 9.123499303325858 16.79907397750788 17.103681054329005 12.552682240671531 16.856697796238194 1.4744631316459467 12.373600451023993 17.5860912608784 2.0450083380256334 12.591572009137261 17.27376175112378 21.857507297680886 21.104454418416008 10.27526905008204 11.477888662279106 7.925136282702154 4.586725581270273 20.181184143516305 20.214740554160862 10.425597816018596 10.963331094667247 20.01269966856154 8.64879260217826 3.739979317032612 19.4580662071641 8.988201100617971 2.936692768636629 16.69775490031918 1.8604817284258042 10.339382909126288 3.1961724037674233 20.710021482266075 20.57004187005112 3.7722486555215884 20.84707153318573 21.411923758641947 2.244780022880063 0.020103141724200125 20.822579307166265 10.207319211279978 4.049158444288764 8.45636269656425 9.759272990061 3.2227340399193896 8.859767282739856 10.357530205908182 3.838722146851071 7.503012367675506 1.4912266155546818 9.741117281042795 3.3083811208607066 1.5068271077934219 10.674404426329815 3.6292574627072973 1.9700321788448132 9.26237901564315 4.028739843702902 6.566745187675315 6.510484151227382 21.025711680426937 6.127628555300458 7.170430399002166 21.694082782867184 7.3852242348489545 7.007415980708628 20.658300950367003 15.123922227249606 15.634574414154086 1.8645553538594033 3.49807915273272 19.347003657268193 7.463826067879814 14.373378297464484 16.271300786651448 1.963453810049615 11.105188738638635 20.930140263697727 17.088149963039832 11.92591174984823 0.48750381563570017 17.068330734291127 10.91080929725955 20.428306203506246 16.21023215715178 1.617542652941504 -0.3598439234981967 13.511233434659546 1.0592183228626153 13.34124947858235 21.96052144048625 6.41152891244207 3.091267610851161 11.469503765736123 19.067767885161025 20.26498894470551 13.819436742503623 18.17324011867691 19.849514902482706 13.985136767239444 19.040301933605626 21.28493263929117 13.72806723781175 15.555165006437374 15.030577950083728 9.289884925321028 5.624776614515347 13.56056278838722 22.747936202022462 21.421742941475955 4.389122150325002 20.378474218658987 5.140046733803198 3.4879697477459817 20.828537273533527 0.6743290688075088 0.8593015269318208 21.084475357177396 8.584901667396252 13.88752117708666 4.808417450892078 13.739821234997288 2.827125493744998 7.36260373140869 0.7022871361871005 18.79344696211856 2.9340008530171104 11.162635900406418 7.789316521342985 3.6385193348857023 19.92667403698623 18.25739402767303 1.0460468638586748 20.674414589020714 18.507037655497193 1.646474436674093 19.644231099785497 19.063153773544446 21.831294769335823 8.328193864129931 16.603182436651895 11.258173668190386 17.66545019517725 7.193509369321381 10.975844296179853 8.494833956273508 16.475453143564827 12.220615521472238 5.303441805789808 7.495369850986966 1.7844393182925655 4.520620125279397 6.911514383704209 2.0654795150884393 12.516995431181213 6.238354615743929 11.097443172055284 14.113248817078665 16.692127114227127 16.066784600517618 14.497799478622253 16.29207480422145 15.265430763414086 13.895885043038867 17.618303816772276 15.827302954157137 1.3466854682000893 3.0292820475935947 16.85182711141413 9.160216611764273 19.650809468580697 3.747682822434406 12.138114616911233 14.899248219855552 19.67271913805268 12.617265081890116 14.569913374398258 20.515618907237137 12.292102705643073 15.856766811836396 19.787794324668937 8.815020494742596 2.6145609005206225 14.89889700898957 11.109157211118344 4.190280017582937 2.1082368091981487 2.1579993930958397 6.8732975941433585 21.088858132295424 2.3813716069207658 6.541430665556453 0.6445770920345975 2.919508672912344 6.564600067416012 20.470081369026648 19.124542068023928 5.22295142570713 11.237654120768793 9.698847896639123 7.047020789260793 10.825942451236077 10.693344576384021 7.06293253424304 11.073459886332639 9.358934664020751 6.295307558628442 11.421770633848462 16.869076401969824 7.018158406477769 21.273502513203603 0.6343604310348941 3.009988583614328 16.151384358038214 16.140036251254685 7.495891409638249 20.806877868091796 17.368372069854463 6.453905552858706 20.659426086973596 1.9673465724025283 9.534159443319698 0.5980721466483397 1.985828255577784 8.625993338716384 21.463007063640465 1.9262044276645296 9.273821760085182 1.5693678786475136 9.528645222417842 14.108960679619134 20.11769278995907 9.100374065706934 14.144651695227608 19.243865433977238 10.469068047155663 14.423073583471686 19.882556063653215 20.210591218600463 12.629540637726935 16.664335188514674 1.9595841813465578 16.48847528537425 14.615633878748515 20.557709531619203 13.188293991857684 17.44006535381492 8.554565040199728 19.810728183911788 20.0832678159154 7.840105398070617 19.987538669755352 19.409708466730347 9.46742937878273 19.77481634710015 19.7147193308944 5.751999070364678 3.06919390277111 1.1986995100761442 6.457251519851405 3.6960905771390737 1.5841607962003983 6.376790582595817 2.389237047871546 0.7474671543543765 18.413268560397608 -0.9605343786983336 9.901298878758604 15.537728543623757 0.8201614944358391 8.480684574798415 18.99847629466736 -1.4073734440066845 10.566723595430926 6.451142133230545 18.23904694027875 5.216522374106453 6.532032094537994 17.393844321404156 5.714480496417642 5.658339334337139 18.657368524492828 5.677338370045521 12.469283329884327 -0.5306249389658602 13.068955904490833 13.280309135686425 -0.3985360044106179 12.504705153930848 12.205736378497164 -1.431037064749513 13.13151139675847 9.473574517407911 18.751177577714888 9.936630271264782 10.330913890220193 18.304058805549193 10.04455716007577 18.050051330138704 8.30798767251092 14.920777235634468 17.065279195569314 7.920269803996242 10.580788854542908 16.34203297261337 7.8181978316577085 11.268394535308246 8.896085009953499 17.366073426282483 10.857372669153035 3.192439473904419 15.089966235380274 2.783827713452307 3.1703047771111135 14.769441104399668 3.7207657692983003 19.626857728744213 14.650786511233086 6.061218155743308 10.804415538516242 3.589475997192602 5.651041719337351 21.449667359910308 2.121193756176159 19.96738505461329 11.326724981888685 2.7314972944206852 5.6219332786422305 0.8431584454510215 19.720122089665136 3.3326209797908386 6.757088858684197 17.099470730055355 10.491600222114663 12.186878247746993 1.2324073409743008 9.25784061415337 17.22456909623616 7.571071565549611 5.253349041616911 12.502084742319973 1.8260020748461137 10.035955648447779 4.738009136028128 13.687345704889303 22.376437125115384 4.9710827613787085 14.163181748761652 21.529167199167365 9.493963675166686 0.7137403959245201 17.478732198018402 17.36852559316714 3.6372638086162863 15.929475873331404 17.854645595929682 3.416303803553538 16.786951944983738 16.603893270620176 4.125751855900373 16.2885353557936 9.647949660839448 0.11592482248366558 11.68962465022685 9.43519999841623 0.731711035743883 10.93457386483811 7.135157892150165 15.158456560365318 5.960830733726051 6.640516294004585 -0.2327791970796961 18.321162985028526 7.382218963426853 0.37715420276714656 18.11964996725772 5.857869167397628 0.2684828310426363 18.65266608439498 8.5065543045138 3.0452631935254075 4.567915820878889 8.794482019789301 2.6466220361609016 3.730925647702904 7.965620169948816 3.845584428621765 4.285931350557106 4.272253054315428 6.227120074150594 19.739508088243824 8.21750565874986 18.778407986653576 21.531943237149992 5.112786882037418 6.617683381597467 20.02320865477305 5.9469379254584425 14.49223478430253 19.24444167216454 3.071864787799851 20.158614113493904 9.144813807078842 2.8670352458634354 0.15351910655750192 9.037801748966675 18.648012014655922 16.86308058053916 16.036839142309553 17.635260782116166 5.7133385353384245 13.987527945410845 17.74840536049905 4.871572314996872 14.50619278740155 17.706352591180384 6.449459685968346 14.70949550844752 19.82858525854095 10.877008931761972 5.366731265675578 19.792566165716348 10.133249470561667 4.756352017304252 3.9340979790860535 3.6756572551396673 5.473522502584581 7.104753967063151 5.300032747024777 4.397711043598528 16.96843122197991 16.915989340817166 11.74546717791831 7.652554589516986 5.8851773895221955 4.9869903002428 2.676681059559164 12.55862338256617 18.145364070601353 12.225099243425998 18.200405332784193 19.72473620128172 2.8741751314323922 12.724624144750111 19.08409182972251 5.785709004321913 0.8974362971886385 12.458196002426435 15.654341066425847 0.34755154318875536 13.563071737866975 3.850204849415579 16.094073895110487 15.180849933425188 4.242475840833584 15.743996577969352 14.352421313754716 3.8281101107447504 15.293714804950728 15.750124892121914 7.497531795718893 16.115790083147317 16.414626365859103 6.860677136617789 16.839867014438973 16.593981553186747 21.20632660014215 2.8893255690284945 19.37531293551377 0.7396185378762181 2.9427390634851567 18.604720543540463 6.478118072020828 3.156554976860792 15.057295212607448 2.5679234624124665 8.98986462034847 5.549333576219267 3.0206489900794358 8.192531832201594 5.939697093053753 14.889