-127222.56521245802
-127219.2105746874
-127216.87766642067
-127216.50429113135
-127215.1830002101
-127213.64979519474
-127214.61902536757
-127213.19920937243
-127212.35057107314
-127212.53871316627
-127211.99630130459
-127212.33098391087
-127211.49998416664
-127213.17052204312
-127210.4693474244
-127210.88696039653
-127213.37873974285
-127212.67582751998
-127211.29454039536
-127212.33369851853
-127212.9564155278
-127213.80015128813
-127212.91405774344
-127212.55394324174
-127212.97883716387
-127213.10685216688
-127212.48603097472
-127215.02211317512
-127213.34055564058
-127211.9309403769
-127211.63804996636
-127213.20857199328
-127210.56580715426
-127211.6639539793
-127212.30063777557
-127213.80859783773
-127212.6719213258
-127212.74589941851
-127214.96241684118
-127214.16626821291
-127212.27418763016
-127213.40721536762
-127211.26961544804
-127212.17461246895
-127211.60750491587
-127210.75781857011
-127213.92134861495
-127211.19181075449
-127213.2454789293
-127211.45180845236
-127210.38022034614
-127209.91141840714
-127210.76658635012
-127210.89516054705
-127212.87156730358
-127212.94983282192
-127213.59217236827
-127213.24479184185
-127213.47326066163
-127209.66739828145
-127211.39407065777
-127213.39992326096
-127213.004206201
-127212.59205591417
-127213.75897855953
-127213.60749686726
-127212.65989715951
-127214.16957398786
-127212.72238905496
-127213.6973734831
-127212.39406479671
-127213.44868619692
-127215.09657944003
-127214.93983615459
-127214.89818355325
-127215.57926190594
-127215.88254638483
-127214.52930970711
