-0.009026628978642518 -1.4982116368779617 -0.5743924166510688 0.4422971066439995 0.4336540862570209 -0.3742322926552781 -0.29424398775609323 0.8292129083042171 0.7439322446578414 1.3971965932154649 1.1761326291874712 0.12802422526148918 -0.27016920619507667 -0.3266046634749859 -0.17365436439577833 0.4800265028739733 0.32404641582950644 0.20797884870926117 -0.45836264474729455 0.6448738105010828 0.9165537969137312 -1.0800613026834949 -0.8804251695119739 0.5625905389201344 -0.413967663571687 -1.6522811371632768 0.058182264767686884 -0.0747504535390132 1.0768921609268938 -0.025365475347982124 -0.3219645935998132 -0.4117570290736134 0.6670349199791544 0.3099729684555758 -1.6765317821805257 -1.0725464823636883 0.32167457316322023 1.5079810575598998 1.0469416373113904 0.13232259552652692 0.15991284643996978 0.5442040659931466 0.48795269969958543 -0.3840924732788095 -0.8189048415099898 -0.04067819444565252 -0.3596816485346129 0.31634930429556485 -0.059336690087104266 0.2673849585817202 -0.36297240347074267 0.07413878809694328 -0.24510069326222303 -0.5299825230771259 0.686740883048514 0.07712435308782846 0.12003349374652876 -0.6641673686233722 0.13719483601716373 0.613964522516736 -0.6123156740594035 1.6128301302565065 0.012562667156359009 0.45172045684042844 -1.6081309250086242 0.18682946832515568 0.5911323551135691 -0.804919325864175 0.9496675487485645 0.9128565505678021 0.09207171842628013 -1.844113972240295 -0.0522576717531358 -0.06843788105742407 0.16606395364303012 -0.9073980985563921 -0.02005100511360418 1.8385645031769755 -0.31894174761308947 1.2123975250567764 -0.3302224627332313 0.08315513266294065 -0.46632817945127425 0.03014232791133518 0.7161992975189472 -0.792146599579539 0.08751829472764282 -0.8070960218005198 -0.4720085176655032 -0.9226210861537336 0.025504829139323816 0.17672451868066985 -0.009789475286596043 1.3618362114382998 0.9727100323903247 -1.3821648956933228 0.06264544274536307 0.24895734800415184 0.026720960934612046 -0.3074617719979479 -0.055915580220697245 -0.3020758250956862 0.1661806817265525 0.1424753676898127 0.1526314822872081 0.41185293122152944 0.9028634439108322 -0.9966215489005996 -0.2220340412507466 -0.07984098068804314 0.5929005027575853 -0.31265077239805505 0.4111546196029242 -0.24373260927010282 0.2061227693371289 -0.7466414160588882 0.44889712845902047 0.007007798776400833 0.6463046294103385 -0.33049345700643085 -0.3864892556457602 0.24390538740254125 0.05573046079308467 1.0004298669030962 -2.0244508908625716 0.3214051215519174 -0.36000715019483165 0.04028661543418868 -0.047648969336530844 -0.27463624082749477 0.23803144512026744 0.41409364762659007 0.3586951162516274 -0.15611969794612468 -0.7140737665355121 0.31192006487961765 0.2707068238661015 0.3417039810102696 -0.1680943538094976 -0.06149101742594571 0.39200427192671844 0.06015892887808348 0.8950665735742327 -0.0069934005986976334 0.02459414439959635 0.027358337408294818 -0.14488526268288598 0.10684836251482244 -0.05168997217512388 -0.28791701709680095 1.1094834645993539 -0.10011618599731145 1.8054170698907295 -0.6638002150919406 0.9169363770641304 -0.9826211208564496 -0.06196435751793844 -0.6874834176414935 -0.8771002189037992 0.7815839935723443 -0.4649328417656445 -0.4331100408280928 0.22472135827492265 -0.1307940746971425 -0.21660181449158178 -0.7165867627653529 0.49926195406481755 -0.031082580337417436 -0.8389604746092841 -0.009645493509564033 -1.9899690550356182 0.7381647460464448 -0.5337869844248807 -0.4340227824503493 1.116967688791541 1.280144036474131 -1.2705975304362762 1.0691096887679974 1.4185529474040537 -0.11929044493291714 -0.7530501477987096 -1.6671565116132128 -0.6745451123132705 -0.5243258390119808 0.2928031415445086 0.6692794930389571 -0.3519014903685617 0.30996885469051777 0.7459767858916959 -0.46337269636737616 -0.3349761753681328 -0.6385023597571003 0.24847218083761727 -0.2580045458080847 -0.09124408031866221 -0.10594359131236593 -0.8372679173982097 -1.839089779552826 -0.06503528313377832 -1.8947785884746982 0.9116252492638622 -0.030313306271560696 0.6097435424568531 -0.24826443570218532 0.040737586928678224 -2.184059061577929 1.416472153615625 -0.37725102487694384 -0.7458335754456122 -0.5891199526692306 0.2699326647042383 -0.05560344829691714 -0.026866742483856957 -0.9956211326605435 0.3400821291361304 -0.39296020808208454 -0.7500470993063276 0.3295606607795163 0.03880823111644929 -0.1608862660968326 0.20613202530850952 0.16766935045693704 0.23106915486982138 0.3602768589164505 -0.40314023393887993 -0.14966211524623904 -0.16195893033572106 0.1360722923769463 -0.12776557228346386 -0.15070752579161786 -0.29678937988576626 0.852418656996719 0.09737436158611618 0.020000354381326847 -0.10936624384066972 -0.22279148824206146 0.08713005815028865 -0.6549643619678656 0.30302687615504587 0.20593122215161305 -1.2652666051416661 -1.077528508959312 0.9521085540898894 0.8846487206750183 0.43733744864587903 0.3785921122858706 0.8157428988422403 0.4140044303468934 -1.2354289529549434 -0.8225928318845381 0.8915125376743873 -0.7806383418296233 0.4177898655312547 1.408606120603987 0.2544636225343617 0.6602767753197144 -0.014985160554922577 -0.16718058374597658 -1.0368881097301303 0.36729108545075456 -1.2037853579077333 1.4250408691212426 -0.38977178305177385 -0.7451506904459748 0.44670217769023063 0.1776532011425263 0.7244054874788234 1.4658956983540754 0.2552074426789218 0.8029555172695848 0.44882976555619475 -0.6962225972867042 -0.7526061182827555 -1.8248718361812315 0.5605110306832863 0.05048541034406144 -0.7464701805883467 1.1336713746994669 1.0606574442355863 -1.3805993509784158 0.09344211641124552 1.325166366821092 -1.0591124683459696 -1.059531301050943 -0.3173474065427761 -0.44012272470050007 0.5158080313489569 -0.04920011587373462 0.9913255906089831 0.5457521272065569 -0.004177014195825065 -0.3646204805971269 -1.1040041866523376 1.169139999919722 -0.845494676183376 -0.7383606641073348 -0.13531535960626373 0.4176080885377517 0.9798826388793641 -1.1361339773073464 0.7966048924612087 0.21604362799526663 0.9919082025853305 -0.4749336617320981 -0.12574417097806084 -0.3739463859837431 -0.5190278238378351 0.043394050714918815 -0.3616534275490029 1.281196131887729 -0.5639899903708222 -0.08515030871609851 -0.6970144970603802 -0.7180360936173698 0.7071716400990401 -0.5524871319375453 -0.2188780121202682 0.8121775500884851 1.1252504976256232 -0.4003462161335105 0.4921523396032299 -0.9362795574774326 -0.7505178682951591 0.3827565280762053 -0.22437117402435552 1.2067305565789863 -0.9976433052968948 -0.07624375025508805 -0.796241338474203 1.6890936780059362 -0.9719636411426036 0.2801530568806659 0.944417870313851 -0.8159958953933107 -0.7641891951346645 -0.5668601128297657 0.38675742170548233 -0.39058322320947575 -1.1929543287305004 -0.48355765595568334 0.46295592054493173 0.35797752135931254 -0.06513169950232654 -0.0747864489832712 0.47217255404719327 2.220186146317789 -0.17102669696494416 0.01659904200926173 -0.24120984284824912 0.3179783552585556 0.720653733745875 1.052265106406833 -0.5381270065611313 -0.6394143300484085 -0.7946305423436573 -0.9898009264343405 1.1132179919411216 0.47736232577824883 1.1268160423405302 -0.05669899535394106 0.36105358918147495 0.004385273551889222 -0.8074135530409386 -0.15492156387296543 0.0018645640125645308 -0.2161701262708019 0.06005711319289657 -0.191019080926471 0.10316371457438363 -0.08095118303308639 0.3569593645074433 0.005861600987099582 -1.8200898414115556 -0.035689997202441766 -0.22828182193267135 1.6975317814709603 0.4255499690926478 -0.9923422047989554 -0.20402860581226154 -0.12396933846582522 0.30507347427142945 -0.856733482321989 -1.2539156989052214 0.6170989543806599 -0.3624568972869048 -0.7738717125297511 1.1766609908871155 0.5087837775123237 0.1931420408067448 -1.0573553764455468 -0.1909388625078389 0.01476995922032295 -0.6109195650428252 1.410743478661964 1.186021349056093 0.10773230778167253 0.3638293521543992 0.5787866890640224 0.45716708177729654 0.37433642233331016 -0.03529070488149406 -0.1553517094318486 0.9743753359078896 -0.3578638785995837 -0.1380870088141299 -0.4716843015568651 0.21981955009793114 1.2497150305603122 -0.41869257985118213 -0.2894000294002306 -1.278044987853257 0.4232190069666259 -0.839931837383618 1.003422373872517 0.5230150906203572 0.013469238131028414 -0.8496799179093173 -0.44258352753616687 -0.5626231919302825 -0.12314761389547824 0.4168802092327917 1.2145366828869664 -0.6055331039199313 0.03459470725573397 1.4048381689211227 -0.7843142480193138 0.1835276576454323 -1.365787225666248 1.1281057076862313 0.08760931177955235 0.021294647712718166 -0.11200445279446516 0.5886669242922119 -1.2005323981880742 0.316493543182913 -0.9100219093324843 -0.365682346202738 0.09426898318791507 -0.13624738450222987 -0.0024397197897441853 -0.11594158306534226 0.5392192111840456 -0.07113136872918717 -1.3111512834889225 -0.17604266212229683 -0.0006718292560440042 1.1125345927208516 1.4743638837260866 0.6619783313918535 0.03385320110401912 -1.0407231672055044 -0.058465343225744475 -0.7203809397004626 -0.01494145180118072 -0.2981726333865381 0.7924949840578932 0.6927238401048262 0.48536411303680277 0.10518383032820595 0.9806848230656852 1.9454707155129265 -0.1176822199055328 -1.3413563463173932 -0.6215168809426974 -0.1423892357339096 -0.11102923336538943 -0.8973419998719707 0.05544095457712387 0.12612032337055698 0.390847789724772 -0.544380700780327 0.14872983323995673 -0.3724672303350553 -0.10148761242354135 -0.1165823019731347 -0.4151375155100721 0.7427582789543983 -0.3475748379687498 0.10055584463789134 1.0850667263178861 0.43778610614752345 0.5572742689135434 -0.4965337565003772 0.9224431658149725 0.12031837197679922 -0.4822911305384339 -1.1150776708576795 0.6259882864504897 0.24010992491585098 0.2984708813532473 -0.7968825716026275 -0.5915535018113877 -1.2198796923664346 -1.5163312292968079 -0.20244532048554167 1.6859872711664703 -0.793714201176975 0.875954278224814 -1.3180557239182398 -0.08879536166785353 -0.006926294806188071 0.47198872017116134 0.7217150851308539 -0.21714457436892926 0.8691012598587226 1.4481406883634995 -0.1932906505694671 1.776761868047882 0.5160893100348015 1.0660367062696285 -1.0195894705506827 -1.1414538468583633 -0.7727041745842111 -0.6806478827768987 0.8196782293409044 -0.33827284384153355 -0.8444492656379973 -0.30575018862347986 -1.1703715583339778 1.6507292192951248 0.3947013591429073 1.0400824482977118 -0.4352545979749214 -0.28282494728587426 0.2650601671032854 -0.765341820681869 -0.6275291485750483 0.13931496768396007 0.2512916525642833 0.3410743178460706 -0.6077650785742436 -0.3258407887257679 0.05805319538899034 0.43899143930953427 -0.5766840408987229 0.48717751209645777 -0.26458631279066047 -0.2995767128229163 -0.5505667749863808 -0.19556247732277932 0.7497974451893668 0.2828576002960225 -0.2776585725935863 0.43797893888461986 0.5354564017075036 0.10996196844313964 -0.5823731208637003 -0.010959584335297253 0.7444860602787824 -0.6079052036965338 -0.7903211163350261 -0.5120403367764085 0.04087282695496187 -1.72812276688394 -0.7754161741987355 -1.1707680224414483 -0.26703605988273366 -0.025802048664768467 -0.36342877428187087 -1.141336090333576 -0.026146833598696902 0.47163570770711677 -0.7999218726495836 0.33250508811982094 -0.5291073195610242 -0.6779723928272646 -1.310142125498118 -0.042027766495011484 0.3187661412671736 -0.6415804844617919 1.168500052342878 1.1992784711763151 0.12435654660191488 0.36288987105926535 -0.16316863437310608 -0.5780513535598948 -1.1895836124860546 -0.710802037762776 0.16305010651737079 -0.4787008420840142 0.9380849861172877 -0.46450346753770966 0.1407362735115189 -0.07992531287173331 1.1873485525079488 0.3398869824061888 0.4976632421191301 -0.3122231979423332 0.48297555819996824 -0.6114759517669275 0.7784498188187368 0.3721558697422236 0.02739998927950765 -0.41209770024248377 -0.8375250277143382 0.2958074755884712 -0.7390718312417466 -0.4788273403595496 0.8209020744456765 0.011810619481682886 0.03261007272553739 -0.8113092885509188 0.3199671035538102 0.18664229201501403 0.08466565577019612 -0.4005727303220198 -0.42497969841147454 0.11675456588494085 0.6009565402928424 -0.34740205983631134 -0.2337443877091394 -0.18407401706720558 0.3222672124418966 -1.1086496558441488 -0.18772781176970896 -2.0400924540545704 -0.34018857280700765 -1.2066374826445476 1.123394675363807 0.8215137398877465 -0.4680299926337294 1.3077738823762575 -0.10683370722680309 1.572472038154434 0.3526208850330894 -1.0538872153912882 -1.0886271899756348 -0.42010308704546356 0.8319621889145801 0.6949334461616354 -1.7652029595656888 0.6405183617458645 0.7559266980155562 0.5293297199844754 -0.5409400505298942 -0.18853745215519788 1.3924937884231567 -0.4425292772594636 -0.5403232428815017 -1.6333470192629354 0.08385498694344268 0.9659135782937818 0.27184736522844793 0.43292363584889954 0.025940631125161775 0.766595233472996 1.1511895860888883 -1.285440766096696 0.4124018617464639 -0.9841373003906598 0.8795975314043561 -0.49049526361578105 0.8388494029527165 -1.3340942654383412 -0.33546339941719644 -1.129104838374707 0.9016437125711181 -0.3055830669179963 0.006689496205033641 0.18587456061105406 -0.05824628523640291 -1.0665560691082083 -0.1019864064368308 0.3597281855018321 1.1955339165322183 0.0025960428619503676 -0.3674150126231285 0.7045609419490705 -0.3065516014788527 0.30021743173070875 -0.18447202383657263 -0.02283396717538003 -0.26326785108955303 -0.11804937343696444 0.04713217760111238 0.9319475057609821 -0.42725178227510285 -0.7253341699406799 -0.8617345350810063 0.832590052306566 0.11410632962881638 0.33064103832788866 -0.319940621191249 0.3634380302532515 -0.12858498286096565 -0.1422262277934841 0.07621109724493973 -0.12782882142123145 0.30499556984564247 -0.5270311537582858 1.2113076344267075 -0.192154737192811 0.3605923332743403 -0.0037514966226322483 0.40465769902467086 -1.4090298384049669 0.47811720166640237 0.20913687357310434 -0.1064884080722424 0.16425543967938164 -1.364749785540669 -0.3681619180914821 -0.7491294725880646 0.9782512739235282 0.9740876294641418 0.2074785120340749 -0.11651622462188965 -0.057934410422938926 0.7394731804452233 0.9325648276300067 -0.6637642196476827 -0.29645565069543134 0.30250391377204033 -0.1644729550068264 -0.3971765601562772 -1.0575194128272367 0.4604285261373877 -0.2962157667704834 0.09231288790280875 0.6950743426148739 0.6514360370996329 -0.03834080456172751 -0.40815517065496804 -0.30803589933386305 0.6402463390314005 0.3803134658523515 -0.816088455107117 0.09255637137218252 -0.15258957330567913 0.6698718752073173 -0.48144600892931916 -0.43337537867433756 0.848061665579604 -0.4519886229001506 1.5278289455237621 -1.0000169477353937 0.3676734084908378 -2.0144387580422083 -0.3932875095145162 0.30514623649089384 0.5222059644555007 0.768181089902877 -0.04017194423319533 -0.28902953343468935 0.04915897822315405 -0.03562237718929995 -0.8269343966826855 -1.1374128440197702 -0.025584019116691427 2.03414060734651 -0.0003926074527283561 0.30720131924770966 -0.844622815101384 0.13520763038380584 -0.01369652365048609 0.5263670378117258 -0.8092945721137352 0.8308077635951626 0.8902470406984023 1.385442280893014 -1.0069506987407497 -0.7604623811023806 -0.5843749817850775 0.35717379451109454 -0.030334132207167117 -0.035955077938370335 0.3397535421521181 0.10013778326386624 -0.13643507503300373 -0.32857387138621474 -0.3111122242663416 0.020093171205449265 -0.26141819947532396 0.40676857472008654 0.06728268440705831 -0.8912695684256456 -1.0607785431944827 -0.21584308194868634 0.6271080018772296 1.047412920520854 0.7673498522508332 0.0582560554284158 0.380494471514906 -0.7958055364883648 -0.4009144299321547 -0.6341106584473079 -0.26048026104208694 0.024480758750183646 0.03983307283653785 0.34988908792422324 1.1820214838680803 -0.12810418656980518 0.05123180159178274 0.44618821416828963 -0.19696861364168658 -0.18380610811779957 -0.6761844476889064 0.3050127962368231 0.363017140665749 0.7777201397415638 -0.2648164265235955 0.11433335803795794 0.23251694305994147 1.7646278037885095 -0.10388953699681462 0.12753494432989648 -0.4008817769220063 0.09886354453713297 -0.07009778525835025 -0.9677305768978623 0.24798881344329546 0.34890409830313457 0.36606852589756306 -0.999123489386847 0.21445674312412097 0.45235166266652416 -0.4350077720714379 0.18816387086586303 -0.18723158885958077 -0.028623063053331354 1.3844878873995448 -1.718667792118627 -0.3442311183074975 -0.4529103633834716 1.0589322340143634 0.14956261355389724 -0.8700425407260692 0.6577591511041833 -0.06639693936799533 -0.7258805293624531 0.10739266505406665 0.46401290105453635 0.9406481188587735 -1.188718950492914 0.19078845297290367 0.7417748319952064 0.3733226363568152 0.770682516168492 1.02969699129833 -0.16861114554491607 0.166985437016035 -0.9509168477746334 -0.05106339433471851 -0.625051119348201 -0.17566239596474262 -0.058416492265680034 0.6595003021650061 1.436120523974172 0.19333024555815093 -0.09480865774146897 -0.984051425545073 -0.2765036330535367 -0.3090882518577774 -0.006632674825169222 0.14293842336916027 1.1791068813244467 0.03267100787045986 -1.7088973429954244 -1.4985332818834387 0.13727685420800875 1.5239969733721819 1.0452501085415804 -0.19019915612833696 0.5181479923360431 0.4280675933081789 -0.4630718772975057 0.25795029553138155 -0.16239344676997838 0.41166421224949107 0.18874776839379107 0.1348600172364 -0.8769534089132898 0.7015751198478691 0.2880026348320717 -0.26517920917965293 -0.5907754859947826 0.12483400045896566 -0.07080123908327807 -0.18950572960573814 0.29916147966236867 -0.5513363061625537 -0.6676280734784631 0.026493161194522115 -0.9061112614241686 -0.1135723115022173 -0.6591226071106132 0.09382803899575455 -0.5537423445008851 -1.020308093884262 -1.3923387509025311 0.5256358160726561 -0.7946518824998959 0.36074942767749485 0.44241974826479286 -0.173029843437902 0.89550906042829 -1.2734601966960521 0.6739391032981554 -1.4775926750760293 0.8482442139040552 -0.5119948282504537 0.9262198592485856 -0.08201022042522005 0.10282201496424873 1.1406768594830226 -0.40656931422508685 -1.7029748068634027 -1.0055026534403135 -0.19927695005988905 -0.27058726756910173 -0.08008652103994596 0.49020215785539445 0.1973707341761117 -0.7801948265343015 0.9909453244514289 0.02799931342640339 -0.41548410021621346 -0.71061049057726 -0.10684681985292567 -0.20915692817776238 -0.24044416832681814 0.9657194600051047 0.8303115406850345 -1.017038679104371 -0.23386908621246175 0.450089863215541 0.21149868893706159 0.021031880969634743 0.13690558691151908 -0.25598083050983655 -0.3331383508284456 -0.28053717969296205 0.16244332617130733 -0.2671923829549398 -0.27703559429760677 -0.1858658188603057 -0.2571990191876538 0.23681274222181797 0.31311048564329297 0.8949729854191618 0.11336610902868219 -0.0070936736219877825 0.13747302937921485 -0.4820605025848665 -0.8065576327985463 0.1047022627060971 -0.2682568196637122 0.24397043631252177 -0.20933947650221366 -0.028988159702233948 1.1416857603635113 0.8474294313122438 -1.1556658766926873 0.7749649455939298 0.18176285243552567 0.7437622947388803 -0.8468437340121028 -0.6970420078642059 0.7662568762969706 -1.021485659132131 1.126661261930221 0.5676797805175836 -0.14245814129863207 0.03088049162894037 0.6366686489824712 0.1931340703869448 -0.6681088697696235 -0.03050999566339907 0.3855027233627748 -0.46890391059825054 -0.22428221385497502 0.09952097561547377 -0.09941633171680941 0.5388772544635946 0.12056134122554074 -1.6270277619131268 -1.2289106922204514 -1.0637358260505938 0.38784756944586757 -0.06912770803559708 2.2258911671223665 1.44158771773633 0.6423973239361322 1.249400327533371 -1.1797167469943037 -1.042086108991302 0.6921011189191628 0.18635895644664033 -0.41070004856400877 0.7547061953448938 0.4982021453417355 0.5823916328064614 0.7289501694267123 -1.5264585475387968 0.25475287164000643 -0.33382663514472183 0.7321676479227454 1.2228768273215456 -0.07742080128232473 0.595379046205065 -0.926124728431618 0.5967833827517594 0.25996552618919744 0.9926142275134195 0.2180740281617341 -0.3816591812469685 -0.13508138921858673 0.05437883186119668 0.6014203673031384 0.19125845063078675 0.31171051997197285 0.2966546540801149 0.26482953914971813 -0.3366461068713879 0.13502791027283198 0.9124472309445253 -0.2379116317129516 -0.40703879766233775 -0.14772273213168108 -0.2448564384619009 -0.010899163411007036 -0.37773336383000106 0.018857241915819136 0.04743788176698927 -0.6387977795103321 -0.5802866706483167 -0.3496399480278946 -0.11288762673036688 0.1284903662646303 -0.1670448294990607 0.0730895208968225 -0.0057818967890997195 -0.239154245870801 0.1081349425367299 0.7269763335297931 0.29049994733262874 -0.17032941378760344 -0.22323320376517036 -0.22787121675781402 -0.02755142725570739 -0.23680580024328246 -1.0824382875561036 -0.7781713683463695 0.4705208773763832 -0.17314785707300503 0.6541824894965186 -0.3427609615198742 -0.32877596009469184 -0.3258983814365806 -0.10124978538112239 -0.284100214453872 -0.526867631597228 -0.6335486152962508 0.2777346772471604 -0.07576372529487597 0.8078966633249441 -0.23457588247149921 0.6435005843026401 -0.6003693003308047 0.07748147931693107 -0.254024221004098 -0.037561503193541755 0.06813269111217943 1.2533960789563252 0.8101108973674436 -0.47074944844742156 0.05899627602855001 -0.39819163168435295 -0.055404187801917484 1.586164448039862 -1.6441117139786072 0.26285904568690854 -0.4961722593959004 -0.3522169647264515 0.04868229569705164 -1.3071838142007424 2.1661263883589084 -0.026980899464218052 -0.29320911873367567 -0.29082339211031855 -2.220865945993633 0.1764075016608833 1.3077597413088704 -0.4215045953786805 2.0579374526557914 -1.7462855538358957 -0.18501375527265557 -0.45103551495826194 0.10266157812698447 0.19919107521430213 -0.48895285882932565 0.10367690676537629 -0.08113938778449252 -0.6479233959606842 -0.041587850744115466 0.43733616309429846 -0.5071254159732944 0.5160797969531048 -0.002149699353151136 -0.15854604799943017 -0.6254987484085809 0.4959228623892556 0.43735981724338224 -1.130874014459988 0.4355183931592693 0.46022926564238803 -0.43044483529110383 -0.21024938991099273 -0.0933788672734779 0.19625461829379748 -0.13666981675162915 0.12148231037791335 0.385251269473601 -0.4556750706128023 -0.08540664770127872 -0.8080730410018083 -0.7283865836137585 1.2301610196877848 0.02076551468212553 0.2896702523424818 -0.14024365014581655 0.2482364106777273 1.0079994517202384 0.177418716534217 -0.7643707150178513 -0.6175365561387106 -0.38215077617140636 -1.3626988165489111 0.32980671535205136 0.7305218847892063 -0.28363021679598893 0.6514293522314135 0.27970722759249894 1.3623224070460989 -0.7196684870144703 -1.6853406387214072 0.24170786553059015 -1.0012654754305141 0.08029272351348107 0.01583439592909531 1.2607846581109126 0.7650255749930308 -0.7234454375583993 0.5149469689002422 -0.46939550552268844 -1.507653756127468 -0.3939865924640698 0.9334999378497665 1.395633619603719 0.04488451921751625 -0.7076161838356264 0.4732596164637849 -0.9291002661201742 0.06908374217153909 -0.2736111419970901 -0.07597661263663046 0.04050721608542701 -0.3850059862320144 1.2560782537741788 -0.45877042170867444 1.007382901182162 0.13107046828698074 1.2164686098023565 -2.2541966989352793 1.2809994424958904 -1.0779635396142015 1.4480944085065965 -1.1599380217054798 -1.3311992032787332 -0.11275264381439938 -0.956396897052598 1.1215959315921715 2.0693096990484747 -0.9808030938111043 -0.3070210849161035 -1.3699552410010083 1.733737541967556 -0.3291425994054912 -0.4298365122831436 -0.48577703220450535 -1.4183038075077252 0.25739339458664706 0.6901193126024436 1.2238204221817375 -0.687028589492262 -0.06348722192036808 0.022834738506328413 0.36213602361237635 0.010501413751956108 -0.1882641438891532 0.390605848917295 -0.44717603200285566 -0.07177954383614736 -0.4960228783022296 -0.11761305723049423 0.2524548196344491 -0.17981318490832257 0.33557601373566076 2.2383072813985323 0.9544243467072596 0.7533072581148382 -1.5526187508739324 -0.7977804008265487 -0.8429266583458838 -0.8162308942222524 0.11971570539579382 -0.48140718527158377 0.8897880987841127 0.6764446433288286 -0.23671272630884393 0.16132309652393506 0.4627715724482675 0.2651190453656789 -0.4637514198630336 -0.6588757812071298 1.164651368020749 0.8559467247546356 -0.5077193408035514 -1.2014507962372856 -0.5564975386485189 -0.057693755167042574 0.3277182082541388 0.36945004077528626 1.1334965396844994 -0.22571740363960482 -0.25680281219049966 -0.582506561117771 -1.487469310759793 -0.2187412294320878 0.9961176126809878 2.120026508677052 0.20338120203624974 -1.0692138184460296 -0.3916551161174158 -0.8898840009320288 0.3707967846111679 0.9007404840305584 1.2928954226025282 -0.1775310737423652 -0.6008716938885199 -0.8595395843122164 0.28734520375373096 -1.5293569521325143 -0.29778645369171297 0.8270266992861758 -0.12583853046408003 0.005536870657829174 0.5503703427048586 -0.3258292187615421 0.11025944507890044 -0.2972511500135332 -0.0254264104929046 -0.1310118471349034 0.4648875903500058 -1.3976601631154446 -0.24727019010971613 1.0389457635901076 -0.05313210393828914 -0.7172159117089197 0.5169069208400905 -0.6063535429386977 -0.7387535286703792 0.37324961702703463 0.7073035376912141 0.4593206377851896 0.43058007531738746 -0.05857332955851848 0.27612336689598255 0.023398067208966155 -0.2093127370293363 0.7835627145652699 -0.54074773201343 -0.37500362360366385 0.16736698872516984 -0.24846678152097854 0.5203077189915233 -0.7344101641000191 0.79807119259409 0.8645349806442788 0.7107454734932276 -0.6924081086366204 0.0386213119166238 0.42732557293583184 -1.210915026973979 -0.16910248335903783 0.16406646359702712 -0.3463427653338616 -0.49634118087359685 -0.631415371003332 1.5285596530421997 0.8859026476867775 1.1531649646477045 -0.42284619700823955 -0.018403956428484435 -0.813159197275464 -0.1755693220303041 -0.1166146978729669 0.06789460695944435 -0.043054922207945205 0.1450341295559244 0.07872872146047086 -0.08412572410632609 -0.08581365333171027 -0.4026059587019647 0.24521587868384861 -1.51088126192583 0.8287282553583146 -0.24267408609860142 0.6983481282701391 0.2027595092918508 -1.2811567940093616 -0.015178250402335149 -0.42468530709950725 0.787983726451101 -0.3678143049440762 -0.21056460715856637 -0.9147056879613988 -0.2980258233960287 0.38953241334745814 -0.23429100424122873 -0.8150960092868607 0.1158035148255812 0.05600891126545193 -0.603552840265109 1.5753501310331772 -0.21131485506102962 -0.24030867119021837 -0.01701967448644811 -2.43964111398745 0.6036793385406442 -0.3160549129835976 1.431474026341096 -0.32258165835852187 0.6520297048195739 0.7179368490353443 -0.9086311996325447 1.1599688749434152 0.06486147656007539 1.6093280306405189 -1.3885949675893827 1.8226120936127772 -1.9668013586699031 0.3010494407137009 -0.5765302889296781 0.39894985000661615 1.2210459447603939 -0.9912050058707187 -1.1457337051806398 0.7674298135591493 0.08951604188396196 1.2305862801506613 -0.28638592516425515 0.5213670134939731 1.0043292019575025 -0.9736415430656588 0.2187592271542168 0.15363087008599993 -0.03766511865094158 -0.6953329955928992 0.39423418969850166 -1.7242596843841078 1.121029003345108 0.23967952224665173 0.9745087761619604 0.06507693500499115 -0.02573931374763309 0.925151308774755 -1.1850049919764367 0.6948020627900937 1.006369629426299 -0.9041219989082816 -0.10249908440719122 -0.26897184345286584 0.45314381955051636 -0.5558110541044556 -0.2152437578017906 0.6297845202681283 -0.3028623255527236 0.07045825392156253 -0.2296442494978368 -0.41609473721701895 -0.32184143775838764 -0.05372217211380425 -0.40959087466023014 -0.17771876427313907 -0.646431641906506 -0.27529984255342266 0.7139740077328542 0.15367612150163856 0.6715376929455144 -0.08599131656015513 0.1871714250456067 -0.7395436286718425 -0.33838854348379144 -0.16700446317942852 1.9708523888108247 -1.073767499254983 -0.7055945254199073 -0.7005783031522387 -0.5944953580485309 -0.6231482458985332 -1.4640542742699625 1.13483736998311 1.0192981645625092 0.8732620761046315 -0.3108633414803291 -0.8304670924262924 0.15531031467095185 0.20091011478793785 -0.9100296226419682 -0.11549601088749141 -0.257767232986298 0.11727984226079156 -1.359417574694478 0.057742863237423135 1.228539939144594 0.2234545757473571 0.0464570059109587 -0.1815985589435195 1.159796353921293 -0.47858617088302086 -0.7614386289727209 -0.16625550082854593 1.8690639573174133 0.38934883658174235 0.009951197675440927 -0.5049032115109949 0.252250674043443 -0.1583673563297208 -1.3755643596576697 -0.4764171882561602 0.5028221606122502 0.5493858673044023 0.40261418623208084 0.24134816819832627 0.154226851798786 -0.21720216707974205 -0.640191060313433 -0.8441605307529849 1.7896261256050596 -0.20008864732790704 -0.4622092721868943 2.0799484097092438 0.2671497026424625 0.5577486374468007 -0.998875892152415 -1.1233743636488331 -0.9386220895676802 0.9733427808783174 0.32560116191113603 -0.948370941424328 0.37712066994666665 -0.15208023776942842 0.29057399510367377 -0.959122266403561 0.20662619133610868 -0.1660014758362109 -0.6419154992037073 0.9847384243097687 -0.9994047680726917 0.4047091210878966 0.134790083230413 0.11723124841104325 -0.3339215088513733 -1.3342305339058893 1.4968738919031446 -0.04985523295923027 0.18506312045335224 -1.0525540984021615 -0.6659046630294532 -1.0757367071662118 0.6249665300541947 -0.27334940369527116 -0.5503366612534457 0.029691613527161768 1.2381160128688031 0.15997275314362772 0.15566795512068674 0.42068569902181097 -0.25717845036236353 -0.9029189797391158 -0.3848167530393437 0.2404637087108439 0.3038964232441928 -1.144302886271384 -0.3935243081156707 -0.24448234295193377 0.24631965327098868 0.751819360715402 -0.4760999141260575 -0.26349462238837845 0.7246026910912939 -0.15373602820529653 1.5667778159831338 -0.2448350983056622 -0.05535945060691111 -1.4757319677182068 0.035773043834551294 0.22516538779087672 -0.38241534268670274 0.12446453293468887 -0.6166538964234413 0.044720225725510085 0.5833372845491824 0.42591095197649237 0.32243587680927693 0.1286364049241914 0.9017157034596341 0.8428873204675162 -0.3434199352601118 -0.