-127214.27256145662
-127214.31066120364
-127213.98538530065
-127213.27520137964
-127214.66860450899
-127214.76333114582
-127213.01824482605
-127212.20823716783
-127214.36110825212
-127214.71291239717
-127214.67704371153
-127211.60390743485
-127213.95810371141
-127213.0880703255
-127213.31636159102
-127213.00935092129
-127213.80465109862
-127215.69089892122
-127212.91931743182
-127213.75113719111
-127211.98150837999
-127213.8315589395
-127213.32479004504
-127213.91667764484
-127212.61904416468
-127213.76266066794
-127211.4725550917
-127214.57456876918
-127212.07370177304
-127211.90862051139
-127211.5925889958
-127213.30247820691
-127216.6070376433
-127218.5085875155
-127215.43100979677
-127215.86091578368
-127212.66297122955
-127210.86944402054
-127211.83803962392
-127212.40261638227
-127212.85535748223
-127215.13918648066
-127213.19089615863
-127213.85677858612
-127214.78667130215
-127215.18530324558
-127214.18919489227
-127214.80251649099
-127214.88949495838
-127213.84827135512
-127213.00690801929
-127213.38399943126
-127213.12605007029
-127214.6122996659
-127213.91659274533
-127214.50601839519
-127215.29927839902
-127214.8171593448
-127214.00965513392
-127215.79654984022
-127213.51383501188
-127215.25668591647
-127215.11207360201
-127214.09641550206
-127213.58748085357
-127214.60764366206
-127213.96580521335
-127213.27977357243
-127212.8971738961
-127213.1222498645
-127214.73286065452
-127213.28664077332
-127213.6595670748
-127216.08895425542
-127214.00822667233
-127214.63470116555
-127214.80602975276
-127213.93232133338
-127213.37950383853
-127215.60190381818
-127214.19182949846
-127214.98950522962
-127215.37673682772
-127214.92486309062
-127214.30608125562
-127212.38342283266
-127214.34186436146
-127212.04619038367
-127214.76485267036
-127214.44931286447
-127215.62684550052
-127215.1012947647
-127214.01232116927
-127214.41185081624
-127214.82898976607
-127213.78919163116
-127214.80080326226
-127214.57574811057
-127214.06149213991
-127213.10612358207
-127215.95982644288
-127215.19053735527
-127213.99980515719
-127214.5565389144
-127213.73865083946
-127213.51920232129
-127213.12788928773
-127212.34126641254
-127213.1411405514
-127213.91718391264
-127214.21524149286
-127215.3726084526
-127214.96513634689
-127214.70703963628
-127214.63751890433
-127216.56566858458
-127215.75032205286
-127215.95099485219
-127212.72043160407
-127214.62640713574
-127213.76172486845
-127215.83472741177
-127213.78589551622
-127215.86990179896
-127212.72925625584
-127214.5465632211
-127213.10729407973
-127212.90491376606
-127212.23631346553
-127212.88072760779
-127211.14997121094
