-127223.5934886127
-127222.27162842931
-127219.9957473319
-127221.2131257334
-127218.31034659753
-127217.88429864064
-127217.94433443657
-127219.63942392019
-127217.91147124827
-127216.51166936201
-127218.63043927611
-127215.27964674612
-127216.57968122275
-127217.38509219792
-127216.96680615221
-127216.60270150927
-127217.24028273697
-127216.60354002805
-127216.23324493134
-127214.63250289389
-127218.05891177795
-127216.27102861812
-127216.40742472734
-127215.15479098479
-127212.85158788922
-127216.27714886653
-127214.80996016505
-127217.024781094
-127216.69044733769
-127215.36868620373
-127215.16054374348
-127215.39904036638
-127216.77015233821
-127214.55108126321
-127215.97946544284
-127216.32444551704
-127216.18425505246
-127215.45496425011
-127218.73999802195
-127217.0476201527
-127218.9434417565
-127217.7510793244
-127217.91682740103
-127219.38745371663
-127218.04035633529
-127219.11030046573
-127216.66928232332
-127217.58919145474
-127217.10903189227
-127217.00658198443
-127216.27121746512
-127218.00491214723
-127218.39257967168
-127216.37369975452
-127215.84186318902
-127216.32903349241
-127216.53258838548
-127217.23691532822
-127214.52373273396
-127217.77878010503
-127216.89485748453
-127216.03100829376
-127218.67056218951
-127216.42123668156
-127216.88061300537
-127216.83700730697
-127215.621465946
-127215.52189854003
-127216.52168532819
-127217.199058851
-127216.0236372741
-127214.27507905386
-127215.28726430092
-127215.97168108226
-127215.7152359666
-127214.57809509242
-127215.64529373033
-127217.25399237641
-127214.81716641976
-127216.47244619303
-127214.45334572761
-127214.89491682661
-127215.67082984533
-127216.20276042615
-127214.38701348957
-127212.55071950912
-127213.91908830135
-127214.9901147646
-127214.20353488339
-127214.42939195456
-127216.04669946617
-127214.24301519996
-127213.8470362304
-127212.575050568
-127213.48124312109
-127215.41882018525
-127213.41101965513
-127214.24862605125
